LAMMPS (3 Mar 2020)
  using 1 OpenMP thread(s) per MPI task
units           real
atom_style      full
boundary        p p p


pair_style      lj/cut/coul/long 12.0
pair_modify     tail yes mix geometric
bond_style      harmonic
angle_style     harmonic
dihedral_style  opls

kspace_style    ewald 1.0e-5
#special_bonds   lj/coul 0.0 0.0 0.5

neighbor        2.0 bin
neigh_modify    every 1 delay 0 check yes

read_data       butane_after_npt.data
  orthogonal box = (3.5033 3.5033 3.5033) to (31.4967 31.4967 31.4967)
  2 by 3 by 4 MPI processor grid
  reading atoms ...
  2352 atoms
  reading velocities ...
  2352 velocities
  scanning bonds ...
  1 = max bonds/atom
  scanning angles ...
  6 = max angles/atom
  scanning dihedrals ...
  11 = max dihedrals/atom
  reading bonds ...
  2184 bonds
  reading angles ...
  4032 angles
  reading dihedrals ...
  4536 dihedrals
  4 = max # of 1-2 neighbors
  6 = max # of 1-3 neighbors
  9 = max # of 1-4 neighbors
  13 = max # of special neighbors
  special bonds CPU = 0.0010617 secs
  read_data CPU = 0.0291201 secs

group           mobile union all
2352 atoms in group mobile

#minimize 1.0e-8 1.0e-10 400000 400000
#write_data buate_after_min.data

thermo_style    custom step time enthalpy etotal ke pe temp press vol density
#thermo_modify   line multi
thermo          1000
thermo_modify   flush yes
timestep 1.0


## Equil NPT ##
#fix      NPT  all nvt temp 272 272 100 iso 1 1 1000
#restart 1000000 liqbut1.restart

#fix      NPT  all npt temp 160 160 50 iso 1 1 500
#dump myDump all atom 2000 butane_npt.lammpstrj

#run 5000000
#write_data ethanol_after_npt.data



fix 1 all nvt temp 175 175 100 # iso 1.0 1.0 1000.0
#dump            DUMPxyz all xyz 1 but1_clms_20ps.xyz
#dump            DUMP all custom 1000 mol.lammpstrj id type x y z fx fy fz mol

run 500000
Ewald initialization ...
  using 12-bit tables for long-range coulomb (src/kspace.cpp:332)
  G vector (1/distance) = 0.189385
  estimated absolute RMS force accuracy = 0.00391074
  estimated relative force accuracy = 1.17771e-05
  KSpace vectors: actual max1d max3d = 128 4 364
                  kxmax kymax kzmax  = 4 4 4
Neighbor list info ...
  update every 1 steps, delay 0 steps, check yes
  max neighbors/atom: 2000, page size: 100000
  master list distance cutoff = 14
  ghost atom cutoff = 14
  binsize = 7, bins = 4 4 4
  1 neighbor lists, perpetual/occasional/extra = 1 0 0
  (1) pair lj/cut/coul/long, perpetual
      attributes: half, newton on
      pair build: half/bin/newton
      stencil: half/bin/3d/newton
      bin: standard
Per MPI rank memory allocation (min/avg/max) = 19.18 | 19.18 | 19.19 Mbytes
Step Time Enthalpy TotEng KinEng PotEng Temp Press Volume Density 
       0            0    1280.8233    1313.7474    1132.0057    181.74167    161.53316   -102.91312    21936.478   0.73915788 
    1000         1000    1676.5542    1536.1848    1258.3332    277.85159    179.55964    438.76258    21936.478   0.73915788 
    2000         2000    1784.8864     1534.224    1246.4463    287.77771    177.86342    783.51333    21936.478   0.73915788 
    3000         3000    1615.6404    1528.3296    1251.0635    277.26616    178.52228    272.91341    21936.478   0.73915788 
    4000         4000     2101.175    1517.8163    1242.9536    274.86267    177.36503    1823.4461    21936.478   0.73915788 
    5000         5000    1749.9473    1550.9155    1253.5869     297.3286    178.88236    622.12798    21936.478   0.73915788 
    6000         6000    1790.7421    1485.7414    1193.6095    292.13186    170.32381    953.36237    21936.478   0.73915788 
    7000         7000    1652.8296    1519.6618    1222.0192    297.64258    174.37776    416.25217    21936.478   0.73915788 
    8000         8000    1888.1685    1497.7955    1242.1668     255.6287    177.25275    1220.2169    21936.478   0.73915788 
    9000         9000    1741.9574    1520.1988    1251.6577    268.54109    178.60707    693.16665    21936.478   0.73915788 
   10000        10000    2051.9829    1438.5234    1179.7441    258.77929    168.34525    1917.5343    21936.478   0.73915788 
   11000        11000    1855.7244    1539.9096    1268.1537    271.75586    180.96099    987.16491    21936.478   0.73915788 
   12000        12000    1336.1743    1511.3023     1195.298    316.00424    170.56475   -547.40992    21936.478   0.73915788 
   13000        13000    1649.5956    1502.7643    1205.6139    297.15043    172.03679    458.96092    21936.478   0.73915788 
   14000        14000    1773.9432    1579.7765    1256.3542    323.42227    179.27725    606.92065    21936.478   0.73915788 
   15000        15000    2081.4644      1499.79    1250.3419    249.44808    178.41931    1818.1812    21936.478   0.73915788 
   16000        16000    1747.7009    1515.4068    1210.6794    304.72743    172.75961    726.09802    21936.478   0.73915788 
   17000        17000    1524.6787    1503.5523    1202.0949    301.45746    171.53463    66.036106    21936.478   0.73915788 
   18000        18000     1646.724    1549.5691    1238.4754    311.09373      176.726    303.68383    21936.478   0.73915788 
   19000        19000    1765.1773    1492.1769    1223.8521    268.32477    174.63931    853.33689    21936.478   0.73915788 
   20000        20000    1705.5355    1458.2877     1214.584    243.70373    173.31678    772.84005    21936.478   0.73915788 
   21000        21000    1643.7914    1516.0632    1239.5833    276.47981     176.8841    399.24939    21936.478   0.73915788 
   22000        22000    1958.1799    1482.9629    1207.5598    275.40308    172.31446    1485.4197    21936.478   0.73915788 
   23000        23000    1915.8401    1543.4195    1235.9509    307.46855    176.36577    1164.1015    21936.478   0.73915788 
   24000        24000    2279.5168     1564.063    1256.1159     307.9471    179.24325    2236.3447    21936.478   0.73915788 
   25000        25000    1618.5647    1503.9758    1234.1193    269.85647     176.1044    358.17888    21936.478   0.73915788 
   26000        26000    1668.3806    1450.6791    1203.5122    247.16691    171.73687    680.48529    21936.478   0.73915788 
   27000        27000    1663.5528    1543.6734    1274.6703     269.0031    181.89089    374.71546    21936.478   0.73915788 
   28000        28000    1882.6683    1480.8823    1191.8319    289.05039    170.07015    1255.8912    21936.478   0.73915788 
   29000        29000    1773.2772    1486.8389     1210.787    276.05184    172.77497    895.34071    21936.478   0.73915788 
   30000        30000    1439.6298    1518.2103    1232.3915    285.81888    175.85785   -245.62483    21936.478   0.73915788 
   31000        31000    1586.5232    1468.9836    1215.4412    253.54244    173.43911    367.40175    21936.478   0.73915788 
   32000        32000    1325.4859    1504.3902    1222.3479    282.04232    174.42466   -559.21398    21936.478   0.73915788 
   33000        33000    1290.7596    1481.6606    1221.6967     259.9639    174.33174   -596.71279    21936.478   0.73915788 
   34000        34000    1357.1093    1505.3616    1237.4909    267.87071    176.58551   -463.40284    21936.478   0.73915788 
   35000        35000    1760.1865     1546.497    1253.2996    293.19741    178.84136    667.94452    21936.478   0.73915788 
   36000        36000    1711.5334    1471.4687    1219.6617    251.80704    174.04135    750.38736    21936.478   0.73915788 
   37000        37000    1742.5783    1543.0824    1229.6307    313.45172    175.46389    623.57861    21936.478   0.73915788 
   38000        38000    918.29015    1493.8527    1219.3608    274.49187    173.99842   -1799.0768    21936.478   0.73915788 
   39000        39000    1949.9657    1509.2717    1240.5057    268.76604    177.01571    1377.5088    21936.478   0.73915788 
   40000        40000    1495.1257    1513.5369    1217.4286    296.10824    173.72271   -57.549157    21936.478   0.73915788 
   41000        41000    1700.5827    1506.5146    1220.0017    286.51285    174.08987     606.6126    21936.478   0.73915788 
   42000        42000    1917.3115    1472.8909    1193.2445    279.64642    170.27171    1389.1572    21936.478   0.73915788 
   43000        43000    2165.1021    1505.1198    1203.4579    301.66193    171.72913    2062.9537    21936.478   0.73915788 
   44000        44000    1409.7176    1532.4916    1227.6845    304.80705    175.18618    -383.7632    21936.478   0.73915788 
   45000        45000    1935.1202    1518.4535    1215.7391     302.7144    173.48161    1302.4048    21936.478   0.73915788 
   46000        46000    2207.8959    1548.3012    1213.2723    335.02889     173.1296    2061.7423    21936.478   0.73915788 
   47000        47000    1753.6955    1529.5446     1268.838     260.7066    181.05864     700.6445    21936.478   0.73915788 
   48000        48000    1713.1643    1522.5369    1227.6932    294.84371    175.18742     595.8578    21936.478   0.73915788 
   49000        49000    1826.5556    1557.0446    1267.1243    289.92027     180.8141    842.42961    21936.478   0.73915788 
   50000        50000    1857.7045    1521.4448    1221.6034    299.84136    174.31843    1051.0708    21936.478   0.73915788 
   51000        51000    1926.0848    1460.1654    1202.9077    257.25774    171.65062    1456.3574    21936.478   0.73915788 
   52000        52000    1568.2992    1547.9174    1243.8034    304.11399    177.48629    63.708802    21936.478   0.73915788 
   53000        53000    1789.6931    1582.9441    1229.2366    353.70753    175.40765    646.24998    21936.478   0.73915788 
   54000        54000    1336.0528    1507.6886    1213.0356    294.65297    173.09584   -536.49431    21936.478   0.73915788 
   55000        55000    1728.4587    1536.5108    1233.5619    302.94886    176.02487    599.98515    21936.478   0.73915788 
   56000        56000    1721.7285    1523.1204    1250.2471    272.87322    178.40579    620.80367    21936.478   0.73915788 
   57000        57000    1556.0631    1487.2183    1219.9501    267.26815    174.08252    215.19308    21936.478   0.73915788 
   58000        58000    1415.1129    1509.4141    1230.8564    278.55769     175.6388   -294.76383    21936.478   0.73915788 
   59000        59000    1900.1473     1489.896    1207.2052    282.69077    172.26386    1282.3517    21936.478   0.73915788 
   60000        60000    1680.3814    1508.2656    1253.5009    254.76465    178.87009    537.99449    21936.478   0.73915788 
   61000        61000    1523.4758    1559.5293    1261.2408    298.28848    179.97454   -112.69512    21936.478   0.73915788 
   62000        62000    1531.3094     1508.186    1192.8998     315.2862    170.22253    72.278334    21936.478   0.73915788 
   63000        63000    1850.4595    1492.6502    1204.8462      287.804    171.92724    1118.4301    21936.478   0.73915788 
   64000        64000    1793.5562     1532.696    1258.9459    273.75014    179.64707    815.38927    21936.478   0.73915788 
   65000        65000     1736.231    1458.8367     1178.796    280.04073    168.20996    867.07126    21936.478   0.73915788 
   66000        66000    2140.5505    1512.4717    1246.4171    266.05464    177.85925    1963.2307    21936.478   0.73915788 
   67000        67000    1862.1394    1499.2757    1238.1878     261.0879    176.68497    1134.2287    21936.478   0.73915788 
   68000        68000     1589.158    1476.4525    1217.3661    259.08642    173.71378    352.29163    21936.478   0.73915788 
   69000        69000    1155.7773    1502.5384    1222.4053    280.13311    174.43286    -1083.896    21936.478   0.73915788 
   70000        70000    1641.7599    1528.6226    1240.9914    287.63119    177.08502    353.64142    21936.478   0.73915788 
   71000        71000    1743.7179    1538.7161    1262.5188    276.19722    180.15692    640.78888    21936.478   0.73915788 
   72000        72000    2308.6463    1491.7069    1230.4603    261.24664    175.58227    2553.5656    21936.478   0.73915788 
   73000        73000    1732.6129    1491.9845    1246.6705    245.31396    177.89542    752.14932    21936.478   0.73915788 
   74000        74000    1195.5037    1533.4454    1244.7958    288.64963     177.6279   -1056.3286    21936.478   0.73915788 
   75000        75000    1713.6652    1426.2031    1200.3496     225.8536    171.28558    898.54073    21936.478   0.73915788 
   76000        76000    2101.4921     1530.929    1231.3418    299.58722    175.70806    1783.4496    21936.478   0.73915788 
   77000        77000    1543.5883    1484.6728     1237.557    247.11587    176.59494    184.15637    21936.478   0.73915788 
   78000        78000    1534.3388    1494.4064    1237.9332    256.47315    176.64864     124.8197    21936.478   0.73915788 
   79000        79000    1604.1671    1555.9152    1272.4232      283.492    181.57024    150.82434    21936.478   0.73915788 
   80000        80000    1665.9365    1494.7201    1216.5964    278.12373    173.60395    535.18314    21936.478   0.73915788 
   81000        81000    1115.7789    1501.2171    1211.0598    290.15736    172.81389   -1204.7919    21936.478   0.73915788 
   82000        82000    1338.9369    1477.7403    1218.6194    259.12091    173.89263   -433.86778    21936.478   0.73915788 
   83000        83000    1973.0024    1451.8008    1179.6756    272.12522    168.33548    1629.1569    21936.478   0.73915788 
   84000        84000    1591.2569    1504.9983    1248.7221    256.27618    178.18817    269.62473    21936.478   0.73915788 
   85000        85000    1721.5465    1557.2521    1262.8019    294.45015    180.19731    513.54668    21936.478   0.73915788 
   86000        86000    1343.9363    1508.0287    1244.7756    263.25312    177.62502   -512.91534    21936.478   0.73915788 
   87000        87000    1614.2433     1451.455    1205.1538    246.30125    171.97112     508.8389    21936.478   0.73915788 
   88000        88000    2003.6595    1506.0605    1229.4157    276.64476    175.43322    1555.3807    21936.478   0.73915788 
   89000        89000    1149.7507    1532.9968    1229.0417    303.95518    175.37984   -1197.9398    21936.478   0.73915788 
   90000        90000     1759.173    1567.6001    1274.2199    293.38012    181.82662    598.81323    21936.478   0.73915788 
   91000        91000    2075.4446    1484.4133    1228.5301    255.88316    175.30685    1847.4287    21936.478   0.73915788 
   92000        92000    1579.9116    1502.1204    1200.3596    301.76081    171.28701    243.15741    21936.478   0.73915788 
   93000        93000    1295.6269    1463.8961    1205.2182    258.67791    171.98031   -525.97084    21936.478   0.73915788 
   94000        94000    1800.1536    1514.3262    1215.9659    298.36031    173.51397    893.43101    21936.478   0.73915788 
   95000        95000    1639.8224    1476.9798    1217.4615    259.51833    173.72739    509.00851    21936.478   0.73915788 
   96000        96000    1532.7041    1486.8881    1210.8293    276.05886      172.781    143.21037    21936.478   0.73915788 
   97000        97000    1840.5698    1492.8087    1222.0926    270.71611    174.38824    1087.0215    21936.478   0.73915788 
   98000        98000    1633.1759    1517.3731    1219.4142    297.95887    174.00604    361.97306    21936.478   0.73915788 
   99000        99000    1665.0863    1496.8975    1210.0158    286.88175    172.66492    525.71978    21936.478   0.73915788 
  100000       100000    1480.4838    1498.9401    1206.2753    292.66477    172.13117   -57.690176    21936.478   0.73915788 
  101000       101000    1126.8057    1534.7374     1247.703    287.03433    178.04275    -1275.101    21936.478   0.73915788 
  102000       102000    1524.9027    1506.7656    1244.4822    262.28339    177.58315    56.692474    21936.478   0.73915788 
  103000       103000    1646.0165    1537.5748    1246.9781    290.59669    177.93931    338.96385    21936.478   0.73915788 
  104000       104000    1595.3569    1494.0703    1238.8131    255.25715    176.77419    316.59883    21936.478   0.73915788 
  105000       105000    1608.5364    1520.7339    1225.8211    294.91279    174.92029    274.45045    21936.478   0.73915788 
  106000       106000    1977.1726    1495.0958    1250.3944    244.70135     178.4268    1506.8621    21936.478   0.73915788 
  107000       107000    1797.5009    1476.8952    1222.5939    254.30131    174.45976    1002.1403    21936.478   0.73915788 
  108000       108000    1819.6782    1488.8826    1204.0645    284.81815    171.81569    1033.9914    21936.478   0.73915788 
  109000       109000    1735.7585    1555.3641    1247.8016    307.56247    178.05682    563.87166    21936.478   0.73915788 
  110000       110000    2008.5178     1510.136    1217.3869     292.7491    173.71675    1557.8275    21936.478   0.73915788 
  111000       111000    1507.8046    1525.3985    1232.2544    293.14413    175.83829   -54.994738    21936.478   0.73915788 
  112000       112000    1924.6728    1533.5004    1234.2037    299.29668    176.11645    1222.7155    21936.478   0.73915788 
  113000       113000    1907.5666    1486.7114    1211.2165    275.49496    172.83625     1315.497    21936.478   0.73915788 
  114000       114000    1526.4201    1521.9031     1213.496    308.40715    173.16153    14.118961    21936.478   0.73915788 
  115000       115000    1928.5471     1439.378    1184.8097    254.56836     169.0681    1529.0305    21936.478   0.73915788 
  116000       116000    1402.8768    1499.2331    1226.8279    272.40521    175.06394   -301.18757    21936.478   0.73915788 
  117000       117000    2271.5175    1512.4513    1193.0858    319.36553    170.24906    2372.6675    21936.478   0.73915788 
  118000       118000    1936.5067    1540.4854    1238.2066    302.27876    176.68765    1237.8723    21936.478   0.73915788 
  119000       119000     1527.504    1471.5368    1183.2968    288.24003    168.85221    174.94065    21936.478   0.73915788 
  120000       120000    1313.4327    1523.8883    1233.8929    289.99537     176.0721   -657.83615    21936.478   0.73915788 
  121000       121000     1383.749    1509.4956    1193.7116    315.78399    170.33837   -393.05505    21936.478   0.73915788 
  122000       122000    1834.8636    1515.6456    1237.1519     278.4937    176.53714    997.80274    21936.478   0.73915788 
  123000       123000    1586.3801    1461.8358    1233.2124    228.62345    175.97499    389.29712    21936.478   0.73915788 
  124000       124000    1153.1849    1525.1234    1262.5897    262.53367    180.16702   -1162.5945    21936.478   0.73915788 
  125000       125000     1779.416    1551.8636    1245.1476    306.71601     177.6781    711.27667    21936.478   0.73915788 
  126000       126000    1198.9166    1470.6157    1238.7138    231.90188    176.76003   -849.26937    21936.478   0.73915788 
  127000       127000    1099.6788    1543.9934    1266.6436    277.34972    180.74551   -1388.8258    21936.478   0.73915788 
  128000       128000    2199.0011    1496.3425    1228.1774    268.16509    175.25651    2196.3501    21936.478   0.73915788 
  129000       129000    1893.7883    1535.1252     1229.604    305.52118    175.46009    1121.0988    21936.478   0.73915788 
  130000       130000     1642.429    1477.4797    1190.6339     286.8458    169.89919    515.59364    21936.478   0.73915788 
  131000       131000     2018.161     1519.009    1249.0263    269.98279    178.23157    1560.2348    21936.478   0.73915788 
  132000       132000    1627.9218    1483.5213    1219.3432    264.17818     173.9959    451.36292    21936.478   0.73915788 
  133000       133000     1814.345    1514.0764    1241.2634    272.81296    177.12384     938.5712    21936.478   0.73915788 
  134000       134000    2187.7904    1522.8858    1233.5318    289.35403    176.02057    2078.3396    21936.478   0.73915788 
  135000       135000     1705.907     1478.562     1214.003    264.55896    173.23388    710.62865    21936.478   0.73915788 
  136000       136000    1376.5613    1485.9079    1166.9328    318.97504    166.51713   -341.79238    21936.478   0.73915788 
  137000       137000    2030.4039    1520.2512    1210.5081    309.74312    172.73517    1594.6206    21936.478   0.73915788 
  138000       138000    1529.7787    1559.6241    1265.9834    293.64065     180.6513   -93.289839    21936.478   0.73915788 
  139000       139000    1415.3592    1533.3384    1229.0643     304.2741    175.38307   -368.77607    21936.478   0.73915788 
  140000       140000    1729.0165     1589.115    1253.0198    336.09523    178.80144    437.30009    21936.478   0.73915788 
  141000       141000    2039.2027    1482.8309     1217.091    265.73996    173.67452    1739.0907    21936.478   0.73915788 
  142000       142000    1626.9086    1512.7137    1225.5296    287.18414    174.87868     356.9472    21936.478   0.73915788 
  143000       143000    1262.6661    1541.2446    1216.3406    324.90397    173.56745    -870.7726    21936.478   0.73915788 
  144000       144000    1608.3939    1520.1109    1224.0441    296.06679    174.66671    275.95238    21936.478   0.73915788 
  145000       145000    1944.0806    1489.5569    1182.2401    307.31684    168.70143    1420.7369    21936.478   0.73915788 
  146000       146000    1454.8885      1498.95    1214.1007    284.84931    173.24782   -137.72634    21936.478   0.73915788 
  147000       147000    1427.9097    1531.1282     1240.774    290.35419    177.05401   -322.63743    21936.478   0.73915788 
  148000       148000    846.63191     1479.962    1210.0921    269.86984    172.67581   -1979.6449    21936.478   0.73915788 
  149000       149000    1829.4222    1447.1254    1186.0833    261.04214    169.24984    1194.9724    21936.478   0.73915788 
  150000       150000    2114.0228    1523.1121    1213.8757    309.23643    173.21571    1847.0519    21936.478   0.73915788 
  151000       151000    1701.6792    1570.5207    1277.7223    292.79842    182.32639    409.97151    21936.478   0.73915788 
  152000       152000    1521.1352    1496.9547    1221.9551    274.99962    174.36861    75.582695    21936.478   0.73915788 
  153000       153000    1748.8898    1506.8757     1197.255    309.62066      170.844     756.4809    21936.478   0.73915788 
  154000       154000     2328.518    1551.6412    1255.0828    296.55842    179.09582    2428.3392    21936.478   0.73915788 
  155000       155000    1974.3517    1570.9374    1261.8145    309.12285    180.05641    1260.9809    21936.478   0.73915788 
  156000       156000    1854.1554    1515.9922    1208.0217    307.97053    172.38036    1057.0208    21936.478   0.73915788 
  157000       157000    1718.4328     1487.473    1221.3842    266.08876    174.28715    721.92768    21936.478   0.73915788 
  158000       158000    1961.9232    1445.7491     1188.111    257.63809    169.53918    1613.4423    21936.478   0.73915788 
  159000       159000    1992.1326    1531.0518    1232.8663    298.18553     175.9256    1441.2331    21936.478   0.73915788 
  160000       160000    1464.7306    1499.6049    1225.5094    274.09549     174.8758   -109.00882    21936.478   0.73915788 
  161000       161000    2309.8225    1528.4818    1221.0965    307.38532    174.24609    2442.2923    21936.478   0.73915788 
  162000       162000    1188.2958    1494.9786     1193.368    301.61062    170.28933   -958.62031    21936.478   0.73915788 
  163000       163000    1664.6892    1470.2103    1194.1105    276.09982    170.39529    607.89659    21936.478   0.73915788 
  164000       164000     1707.296    1503.6269    1214.6888    288.93804    173.33175    636.62295    21936.478   0.73915788 
  165000       165000    1838.1108    1530.7086    1213.5208    317.18778    173.16507    960.86879    21936.478   0.73915788 
  166000       166000    1758.2842     1511.985    1219.4477    292.53734    174.01081     769.8748    21936.478   0.73915788 
  167000       167000    1605.7506    1476.8304    1232.7629    244.06748    175.91085    402.97526    21936.478   0.73915788 
  168000       168000    1686.7855    1493.9006     1208.032    285.86868    172.38183    602.91393    21936.478   0.73915788 
  169000       169000    1830.5944    1497.6827    1203.5673    294.11532    171.74475    1040.6059    21936.478   0.73915788 
  170000       170000    1776.1763    1471.6934    1203.1401     268.5533    171.68379    951.74383    21936.478   0.73915788 
  171000       171000    1744.9131    1522.3196    1212.6035    309.71602    173.03418    695.77664    21936.478   0.73915788 
  172000       172000    1740.3275    1494.1347    1219.5276    274.60714    174.02222    769.54243    21936.478   0.73915788 
  173000       173000    1568.0106    1506.2243    1229.6966    276.52768     175.4733    193.12995    21936.478   0.73915788 
  174000       174000    1088.2841    1500.4937    1229.6933    270.80041    175.47283   -1288.4731    21936.478   0.73915788 
  175000       175000     1707.532    1515.0086    1209.0492    305.95944    172.52699    601.78404    21936.478   0.73915788 
  176000       176000    1652.1647    1552.8773    1263.3551    289.52223    180.27624    310.34964    21936.478   0.73915788 
  177000       177000    1537.0633    1486.9672     1202.788    284.17918    171.63354      156.589    21936.478   0.73915788 
  178000       178000    1786.0737    1543.4586    1251.6762    291.78239    178.60971    758.35909    21936.478   0.73915788 
  179000       179000     1720.567    1537.6557       1257.7    279.95569    179.46929    571.73877    21936.478   0.73915788 
  180000       180000    1671.0317    1519.2119    1227.1551    292.05681    175.11064    474.55403    21936.478   0.73915788 
  181000       181000     1726.467      1530.56     1263.733      266.827    180.33017    612.36058    21936.478   0.73915788 
  182000       182000    1924.0913     1489.936    1217.6707    272.26529    173.75725    1357.0701    21936.478   0.73915788 
  183000       183000    1677.0411    1532.7081     1225.536    307.17209    174.87959    451.15205    21936.478   0.73915788 
  184000       184000    1672.6134    1510.3514    1218.8086    291.54284    173.91961    507.19398    21936.478   0.73915788 
  185000       185000     1586.678    1496.5715    1216.5357    280.03583    173.59528    281.65227    21936.478   0.73915788 
  186000       186000    2038.0031    1493.3753    1197.9778     295.3975    170.94714    1702.3821    21936.478   0.73915788 
  187000       187000    1766.4689    1538.1554    1224.0488    314.10663    174.66737    713.65576    21936.478   0.73915788 
  188000       188000    1960.9872    1510.4127    1238.6858    271.72687    176.75602    1408.3929    21936.478   0.73915788 
  189000       189000    2055.1583    1506.1964    1213.4251    292.77124    173.15142    1715.9294    21936.478   0.73915788 
  190000       190000    1799.0362    1523.1325    1235.9727    287.15976    176.36888    862.41181    21936.478   0.73915788 
  191000       191000    1566.0862     1498.076    1226.9712    271.10481     175.0844    212.58416    21936.478   0.73915788 
  192000       192000    1985.2798    1473.7906    1199.1159    274.67471    171.10955    1598.7983    21936.478   0.73915788 
  193000       193000    2110.0917    1515.3479    1231.2943    284.05354    175.70129    1859.0333    21936.478   0.73915788 
  194000       194000    1942.0761    1502.1268    1214.8918    287.23497    173.36071    1375.1811    21936.478   0.73915788 
  195000       195000    1542.6916     1494.585    1251.6922    242.89274      178.612    150.37033    21936.478   0.73915788 
  196000       196000    1958.9541    1531.0121    1218.1721    312.84001    173.82879    1337.6488    21936.478   0.73915788 
  197000       197000    1937.0384    1529.0244    1231.1721    297.85234    175.68385    1275.3583    21936.478   0.73915788 
  198000       198000    1782.3561    1545.4324    1253.6956    291.73678    178.89787     740.5694    21936.478   0.73915788 
  199000       199000    2015.1799    1527.2383    1234.5546    292.68373    176.16651    1525.1939    21936.478   0.73915788 
  200000       200000    2013.3383    1558.0106    1232.2224    325.78813    175.83373    1423.2503    21936.478   0.73915788 
  201000       201000    2137.6964    1522.0853    1243.5142    278.57111    177.44502    1924.2596    21936.478   0.73915788 
  202000       202000    2550.4697    1478.8933     1188.902    289.99122    169.65206    3349.5027    21936.478   0.73915788 
  203000       203000    2061.9285    1526.8403    1200.0964    326.74396    171.24945    1672.5634    21936.478   0.73915788 
  204000       204000    1649.1654    1490.1922    1219.3068    270.88533    173.99072    496.91396    21936.478   0.73915788 
  205000       205000     1292.158    1553.8107    1224.8495    328.96118    174.78164    -817.8666    21936.478   0.73915788 
  206000       206000    1525.9461    1487.6543    1190.7785    296.87575    169.91983    119.69165    21936.478   0.73915788 
  207000       207000    1478.5773    1511.6122     1229.981    281.63116    175.51388   -103.25952    21936.478   0.73915788 
  208000       208000    1786.7912    1551.5536    1238.7893     312.7643    176.77079    735.29891    21936.478   0.73915788 
  209000       209000    1401.6874    1527.0977     1230.933    296.16474    175.64973   -392.00403    21936.478   0.73915788 
  210000       210000    1717.8681    1534.8803    1244.1629    290.71746    177.53759    571.97788    21936.478   0.73915788 
  211000       211000    1859.5024    1500.3742    1200.2575    300.11667    171.27245    1122.5527    21936.478   0.73915788 
  212000       212000    1841.2269    1538.1004    1230.1834      307.917    175.54277    947.50402    21936.478   0.73915788 
  213000       213000    1643.5933    1510.9457    1239.7206    271.22509    176.90369    414.62609    21936.478   0.73915788 
  214000       214000    1392.1491     1515.306    1209.1228    306.18328    172.53749   -384.96046    21936.478   0.73915788 
  215000       215000    1777.7075    1545.1132    1249.6079     295.5053    178.31457    727.03648    21936.478   0.73915788 
  216000       216000    1890.5855    1495.3129    1225.3386     269.9743    174.85144    1235.5316    21936.478   0.73915788 
  217000       217000    1253.3949    1538.1288     1253.103    285.02578    178.81331   -890.01305    21936.478   0.73915788 
  218000       218000    1149.6742    1492.7217    1197.7019    295.01981    170.90777    -1072.288    21936.478   0.73915788 
  219000       219000    1533.2031    1506.2056    1206.0261    300.17949     172.0956    84.388097    21936.478   0.73915788 
  220000       220000    1542.1976    1529.5329      1216.51    313.02285    173.59162    39.586991    21936.478   0.73915788 
  221000       221000    2347.4241    1491.7296    1202.4824    289.24725    171.58993    2674.7051    21936.478   0.73915788 
  222000       222000    1387.1093    1526.4369     1238.098    288.33894    176.67215   -435.50629    21936.478   0.73915788 
  223000       223000    1173.3915    1491.6726    1208.7077    282.96495    172.47825   -994.87397    21936.478   0.73915788 
  224000       224000    1220.8057    1470.9116    1203.1774    267.73416    171.68911   -781.77384    21936.478   0.73915788 
  225000       225000    1986.8006    1517.7192    1229.2073    288.51198    175.40347    1466.2411    21936.478   0.73915788 
  226000       226000    2329.5945    1523.0511    1242.5469    280.50424    177.30699    2521.0702    21936.478   0.73915788 
  227000       227000    1777.7637    1474.8626    1204.6394    270.22318    171.89773    946.79935    21936.478   0.73915788 
  228000       228000    941.63375      1452.67     1209.274    243.39609    172.55906   -1597.3826    21936.478   0.73915788 
  229000       229000    1550.7084    1505.2541    1221.6554     283.5987    174.32585    142.07968    21936.478   0.73915788 
  230000       230000    1345.3736     1473.256    1222.4727    250.78336    174.44247   -399.73114    21936.478   0.73915788 
  231000       231000    1152.7954    1496.2903    1221.2157     275.0746     174.2631   -1073.6864    21936.478   0.73915788 
  232000       232000    1627.9594    1461.2601    1191.0346    270.22545    169.95637    521.06418    21936.478   0.73915788 
  233000       233000    1545.1688    1538.1442     1210.432     327.7122     172.7243    21.957317    21936.478   0.73915788 
  234000       234000    1561.8297    1481.3964    1239.8962    241.50025    176.92875    251.41603    21936.478   0.73915788 
  235000       235000    1850.8804     1548.781    1238.8681    309.91289    176.78204    944.29367    21936.478   0.73915788 
  236000       236000      2222.11    1510.0745    1200.5861    309.48838    171.31933    2225.6602    21936.478   0.73915788 
  237000       237000    1886.1183    1474.5141    1236.1562    238.35797    176.39506    1286.5806    21936.478   0.73915788 
  238000       238000    1564.6545    1479.6372    1242.4384    237.19881     177.2915    265.74476    21936.478   0.73915788 
  239000       239000    1467.5691    1509.7331    1231.7337     277.9994    175.76398   -131.79488    21936.478   0.73915788 
  240000       240000    1652.2971    1576.1907    1289.2518    286.93885    183.97162    237.89124    21936.478   0.73915788 
  241000       241000    2113.4953    1499.6436    1239.6438    259.99979    176.89273    1918.7598    21936.478   0.73915788 
  242000       242000    2053.6789    1536.7693    1229.2506    307.51871    175.40965    1615.7414    21936.478   0.73915788 
  243000       243000    2233.7376    1508.8022    1214.4672    294.33496    173.30012    2265.9823    21936.478   0.73915788 
  244000       244000    1812.9205    1473.3401    1211.1027    262.23735    172.82002    1061.4508    21936.478   0.73915788 
  245000       245000    1745.1886    1500.6519    1219.5593    281.09262    174.02674    764.36579    21936.478   0.73915788 
  246000       246000    1405.1421    1470.4013    1218.7614    251.63994    173.91288   -203.98542    21936.478   0.73915788 
  247000       247000    1959.0622    1484.2197    1203.0264    281.19336    171.66755    1484.2491    21936.478   0.73915788 
  248000       248000    1205.0585    1532.1308    1242.6636    289.46719    177.32365   -1022.3532    21936.478   0.73915788 
  249000       249000    1829.5884    1513.1737    1218.0036    295.17009    173.80476    989.03984    21936.478   0.73915788 
  250000       250000    1868.9277    1524.1103    1228.7936    295.31669    175.34444    1077.8205    21936.478   0.73915788 
  251000       251000    1336.7088    1440.2499    1200.7738    239.47616    171.34612   -323.64579    21936.478   0.73915788 
  252000       252000     1878.319    1555.5127    1252.6068    302.90586    178.74251    1009.0189    21936.478   0.73915788 
  253000       253000    1431.4319    1488.5362    1211.2271     277.3091    172.83777   -178.49489    21936.478   0.73915788 
  254000       254000    1739.4363    1524.6751    1233.5288     291.1463    176.02014     671.2944    21936.478   0.73915788 
  255000       255000    1769.3572    1470.3711    1222.8074    247.56373    174.49023    934.56232    21936.478   0.73915788 
  256000       256000    1857.0087    1529.5075    1248.0971    281.41048    178.09898    1023.6936    21936.478   0.73915788 
  257000       257000    1682.0769    1497.9333    1226.2762    271.65712    174.98522    575.59052    21936.478   0.73915788 
  258000       258000    2138.1166    1471.0902    1198.3735    272.71664    171.00361    2084.9721    21936.478   0.73915788 
  259000       259000     2078.367    1547.5643    1236.6163    310.94803    176.46072    1659.1678    21936.478   0.73915788 
  260000       260000    1803.9033    1528.5396    1215.3176    313.22198    173.42147    860.72387    21936.478   0.73915788 
  261000       261000     1874.527    1488.7608    1216.8415    271.91931    173.63892     1205.817    21936.478   0.73915788 
  262000       262000    1148.1213    1515.1709    1257.2253    257.94565    179.40154   -1147.3133    21936.478   0.73915788 
  263000       263000     1503.542    1491.8484    1241.5696    250.27881    177.16753    36.551673    21936.478   0.73915788 
  264000       264000    1864.5895    1516.5246    1212.7872    303.73741    173.06039    1087.9713    21936.478   0.73915788 
  265000       265000    1800.6521    1502.1733    1236.8237    265.34955    176.49031    932.97654    21936.478   0.73915788 
  266000       266000    1773.1763    1448.5631    1214.0385    234.52461    173.23894    1014.6668    21936.478   0.73915788 
  267000       267000    1849.2876    1523.6595    1230.1533    293.50615    175.53847    1017.8391    21936.478   0.73915788 
  268000       268000    1519.4293    1549.1248    1219.9643    329.16049    174.08454   -92.821327    21936.478   0.73915788 
  269000       269000    1882.1499    1508.7805    1252.8408     255.9397    178.77589    1167.0674    21936.478   0.73915788 
  270000       270000    1986.1024    1500.8225    1229.7051     271.1174    175.47451    1516.8741    21936.478   0.73915788 
  271000       271000    1694.1416     1539.308    1242.0828    297.22529    177.24076    483.97423    21936.478   0.73915788 
  272000       272000    941.21926    1500.9473    1242.9776    257.96971    177.36845   -1749.5819    21936.478   0.73915788 
  273000       273000    1802.0925    1571.4679    1242.1473     329.3206    177.24997    720.87984    21936.478   0.73915788 
  274000       274000    1228.8597    1517.2229    1238.1827     279.0402    176.68424   -901.35742    21936.478   0.73915788 
  275000       275000    1891.1747    1488.5548    1215.6461    272.90868    173.46834    1258.4979    21936.478   0.73915788 
  276000       276000    1608.4677    1515.1765    1239.5897    275.58673    176.88501    291.60701    21936.478   0.73915788 
  277000       277000    1851.4146    1510.1015    1217.4499    292.65162    173.72574    1066.8665    21936.478   0.73915788 
  278000       278000    2033.0407    1539.2916    1225.9228    313.36884    174.93479    1543.3469    21936.478   0.73915788 
  279000       279000    1914.9236    1515.6767     1242.854    272.82271    177.35081    1247.9546    21936.478   0.73915788 
  280000       280000    1692.8701    1467.1203    1212.1239    254.99644    172.96573    705.64221    21936.478   0.73915788 
  281000       281000    1929.7716    1494.8301    1208.8801       285.95    172.50286    1359.5276    21936.478   0.73915788 
  282000       282000    1273.0044    1515.7684    1251.6522    264.11626    178.60628   -758.82492    21936.478   0.73915788 
  283000       283000    1519.3004    1544.4214    1245.6877    298.73373    177.75517   -78.522548    21936.478   0.73915788 
  284000       284000    1677.6486     1568.844    1248.2733    320.57077    178.12412    340.09826    21936.478   0.73915788 
  285000       285000    1639.6142    1514.4354    1215.7921    298.64332    173.48918    391.28043    21936.478   0.73915788 
  286000       286000    1822.4602    1477.6218     1178.934    298.68782    168.22965    1077.8861    21936.478   0.73915788 
  287000       287000    1742.2481    1527.3006    1221.2409    306.05961    174.26671    671.87697    21936.478   0.73915788 
  288000       288000    1474.6507    1524.8213     1216.659    308.16223    173.61288   -156.82177    21936.478   0.73915788 
  289000       289000    2350.0485     1511.379    1240.1529     271.2261    176.96538     2621.489    21936.478   0.73915788 
  290000       290000    2105.7591     1507.703    1215.7888     291.9142    173.48871    1869.3864    21936.478   0.73915788 
  291000       291000    1213.7442    1506.7241     1227.889     278.8351    175.21536     -915.788    21936.478   0.73915788 
  292000       292000    1478.1008    1501.3816    1226.2379    275.14372    174.97976   -72.770525    21936.478   0.73915788 
  293000       293000    1658.1963     1485.217      1234.22    250.99706    176.11877    540.69352    21936.478   0.73915788 
  294000       294000    1942.4917    1528.8955     1229.542    299.35351    175.45124    1292.8071    21936.478   0.73915788 
  295000       295000    1916.9449    1508.5369    1211.0659    297.47099    172.81476    1276.5902    21936.478   0.73915788 
  296000       296000    1573.9424    1541.0061    1259.2391    281.76705     179.6889    102.95131    21936.478   0.73915788 
  297000       297000    1553.6404    1492.0802    1223.4186    268.66153    174.57746    192.42308    21936.478   0.73915788 
  298000       298000    1813.9775    1524.9857     1241.439    283.54668    177.14889    903.32237    21936.478   0.73915788 
  299000       299000     1588.645    1458.2105    1218.8409    239.36968    173.92423    407.70814    21936.478   0.73915788 
  300000       300000    2112.3099    1495.0908    1213.8658    281.22493     173.2143    1929.2861    21936.478   0.73915788 
  301000       301000    1519.5691    1554.0947    1228.8577    325.23694     175.3536   -107.91898    21936.478   0.73915788 
  302000       302000    1966.1234    1481.4468    1243.6064    237.84043    177.45818     1514.988    21936.478   0.73915788 
  303000       303000    2131.9395    1508.7214    1216.0258     292.6956    173.52253    1948.0371    21936.478   0.73915788 
  304000       304000    1460.4404     1511.331     1222.128    289.20308    174.39328   -159.07255    21936.478   0.73915788 
  305000       305000    1542.3052    1497.6841    1213.4002    284.28391    173.14786    139.47547    21936.478   0.73915788 
  306000       306000    1337.1204    1528.2942     1229.112    299.18222    175.38988   -597.56564    21936.478   0.73915788 
  307000       307000    1717.3709    1460.9347    1204.2822    256.65248    171.84675      801.561    21936.478   0.73915788 
  308000       308000    1328.6225    1513.9286    1218.6394    295.28914    173.89548   -579.22458    21936.478   0.73915788 
  309000       309000    2106.6061     1554.276    1255.1797    299.09634    179.10965    1726.4575    21936.478   0.73915788 
  310000       310000    2203.3194    1540.0672    1260.6293    279.43795    179.88728    2073.1747    21936.478   0.73915788 
  311000       311000    1631.8824    1474.1166    1219.5061     254.6105    174.01915    493.13982    21936.478   0.73915788 
  312000       312000    2023.8083    1507.4573    1229.0806    278.37667     175.3854    1613.9951    21936.478   0.73915788 
  313000       313000     1524.402    1478.2746    1188.0583    290.21629    169.53166    144.18386    21936.478   0.73915788 
  314000       314000    1198.7325     1541.571    1235.0927    306.47838     176.2433   -1071.6349    21936.478   0.73915788 
  315000       315000    918.92633    1484.5097    1199.4425    285.06722    171.15615   -1767.8844    21936.478   0.73915788 
  316000       316000    976.74809    1513.3843    1205.9086    307.47566    172.07884   -1677.4019    21936.478   0.73915788 
  317000       317000    1564.7272    1467.6364    1210.8817    256.75463    172.78849    303.48363    21936.478   0.73915788 
  318000       318000    1397.2631    1513.3134    1218.5494    294.76395    173.88264   -362.74658    21936.478   0.73915788 
  319000       319000    1961.2906    1518.8122    1218.8946    299.91765    173.93189    1383.0862    21936.478   0.73915788 
  320000       320000    2075.3184    1533.5419    1216.8257    316.71625    173.63666    1693.4693    21936.478   0.73915788 
  321000       321000    1074.0691    1475.1755    1192.8953    282.28023    170.22188   -1253.7667    21936.478   0.73915788 
  322000       322000    1578.9599    1496.2644     1205.974    290.29033    172.08818    258.48742    21936.478   0.73915788 
  323000       323000    1819.2843    1542.8407    1251.9712    290.86949    178.65181    864.09951    21936.478   0.73915788 
  324000       324000    2035.0244    1491.3165    1240.3803    250.93619    176.99783    1699.5065    21936.478   0.73915788 
  325000       325000    1761.4013    1460.5556    1192.4257    268.12992    170.15488    940.37488    21936.478   0.73915788 
  326000       326000    1831.2632    1522.4024    1236.4425    285.95998    176.43591    965.42814    21936.478   0.73915788 
  327000       327000    1621.1164    1502.5925     1205.485     297.1075    172.01839    370.47864    21936.478   0.73915788 
  328000       328000    1869.1975    1493.5366    1239.9537    253.58288    176.93695      1174.23    21936.478   0.73915788 
  329000       329000    1507.7187    1520.0864    1243.8592    276.22727    177.49424   -38.658667    21936.478   0.73915788 
  330000       330000    1565.5708     1506.699    1213.3062     293.3928    173.13444    184.01999    21936.478   0.73915788 
  331000       331000    1326.6958    1546.1807    1256.4497    289.73107    179.29086   -686.05973    21936.478   0.73915788 
  332000       332000    2109.2464    1541.8492    1237.1525    304.69674    176.53723    1773.5536    21936.478   0.73915788 
  333000       333000    1359.1814    1486.1595     1222.572    263.58745    174.45664   -396.90437    21936.478   0.73915788 
  334000       334000    1247.9256    1508.9207    1206.5461    302.37459     172.1698   -815.81076    21936.478   0.73915788 
  335000       335000    1204.3893    1496.0487    1254.0563    241.99245    178.94933   -911.66047    21936.478   0.73915788 
  336000       336000    1924.4106    1505.8605    1219.6903    286.17023    174.04543     1308.292    21936.478   0.73915788 
  337000       337000    1641.2489    1529.0334    1231.4125    297.62092    175.71815    350.75993    21936.478   0.73915788 
  338000       338000    1445.1492    1491.0312    1205.0251    286.00613    171.95276    -143.4167    21936.478   0.73915788 
  339000       339000     1880.824    1507.5752    1214.7273     292.8479    173.33723    1166.6906    21936.478   0.73915788 
  340000       340000    1325.4141    1450.1843     1196.987    253.19729    170.80576   -390.00335    21936.478   0.73915788 
  341000       341000    1664.2838    1527.7809    1238.6912    289.08966     176.7568    426.67689    21936.478   0.73915788 
  342000       342000    1336.9903    1505.3515     1233.083    272.26852    175.95653   -526.25853    21936.478   0.73915788 
  343000       343000    1496.2354    1526.3493    1249.9816    276.36764     178.3679   -94.128966    21936.478   0.73915788 
  344000       344000    1807.3482    1506.0267     1253.681    252.34565    178.89579    941.86232    21936.478   0.73915788 
  345000       345000    1607.4877    1462.4426    1201.0205    261.42211    171.38132    453.37791    21936.478   0.73915788 
  346000       346000    2117.2385    1551.1179    1225.9507    325.16718    174.93877    1769.5637    21936.478   0.73915788 
  347000       347000    2171.1365    1536.4409    1219.7086    316.73231    174.04805    1983.9131    21936.478   0.73915788 
  348000       348000    1912.3787    1459.3481    1212.3441    247.00402    172.99716      1416.07    21936.478   0.73915788 
  349000       349000    2074.4448    1531.1797    1232.1311    299.04861    175.82069    1698.1225    21936.478   0.73915788 
  350000       350000    1830.2823    1482.9488    1196.6106    286.33826    170.75204    1085.6851    21936.478   0.73915788 
  351000       351000    2001.9766    1494.7413    1204.1318    290.60956    171.82529    1585.5013    21936.478   0.73915788 
  352000       352000    1773.2987    1492.8662    1240.6606    252.20567    177.03782    876.56783    21936.478   0.73915788 
  353000       353000    1547.4312    1476.4408    1192.4104    284.03038    170.15269    221.89968    21936.478   0.73915788 
  354000       354000    1939.1897    1512.6934    1221.0547    291.63865    174.24014    1333.1298    21936.478   0.73915788 
  355000       355000    2140.9691    1472.4971    1209.6848    262.81225    172.61769    2089.4908    21936.478   0.73915788 
  356000       356000    1658.6787     1526.427    1236.9101    289.51692    176.50264     413.3886    21936.478   0.73915788 
  357000       357000    1843.5042    1483.9583    1213.4266    270.53167    173.15163    1123.8585    21936.478   0.73915788 
  358000       358000    1489.2021    1533.4472    1234.9295    298.51775    176.22001   -138.30025    21936.478   0.73915788 
  359000       359000    2185.5977    1525.6214    1240.3852    285.23623    176.99852     2062.935    21936.478   0.73915788 
  360000       360000    1455.1274    1511.6444    1221.5115    290.13288    174.30531   -176.65911    21936.478   0.73915788 
  361000       361000     1475.795    1493.9678    1218.2601    275.70769    173.84135   -56.804174    21936.478   0.73915788 
  362000       362000    1651.7159    1532.2432    1232.1441     300.0991    175.82255    373.44435    21936.478   0.73915788 
  363000       363000    1719.5674    1486.9379    1219.3176    267.62026    173.99225    727.14659    21936.478   0.73915788 
  364000       364000    1485.4812    1510.8907    1221.2057    289.68495    174.26168   -79.424112    21936.478   0.73915788 
  365000       365000    1529.1927    1511.4204    1238.9067     272.5137    176.78755    55.552186    21936.478   0.73915788 
  366000       366000    1585.6581     1539.374     1248.735    290.63899    178.19001    144.67366    21936.478   0.73915788 
  367000       367000    1683.4136    1521.1737    1227.1369     294.0368    175.10804    507.12463    21936.478   0.73915788 
  368000       368000    1767.7501    1474.7651    1177.8632    296.90194    168.07685    915.80416    21936.478   0.73915788 
  369000       369000    1482.8738    1512.9443    1225.0308    287.91349    174.80751   -93.993525    21936.478   0.73915788 
  370000       370000    2031.8049    1525.5531    1269.2424    256.31072    181.11634    1582.4273    21936.478   0.73915788 
  371000       371000    2222.7301    1569.7041    1257.8306    311.87351    179.48792    2041.2101    21936.478   0.73915788 
  372000       372000    1595.6106    1510.0653    1239.7429    270.32241    176.90687    267.39485    21936.478   0.73915788 
  373000       373000    1353.6462     1420.195     1180.478    239.71701    168.44998   -208.01628    21936.478   0.73915788 
  374000       374000    1730.5215    1520.4811    1236.2877    284.19332    176.41383    656.53843    21936.478   0.73915788 
  375000       375000    1354.9888    1481.2578    1204.6322    276.62563    171.89669   -394.68791    21936.478   0.73915788 
  376000       376000    1654.3247    1534.9512     1222.011    312.94023    174.37659    373.13418    21936.478   0.73915788 
  377000       377000    1177.2334    1454.5655    1175.2202     279.3453    167.69972   -866.87701    21936.478   0.73915788 
  378000       378000    2031.3546    1477.3385    1245.1347    232.20385    177.67626    1731.7275    21936.478   0.73915788 
  379000       379000    2209.5718     1515.433    1240.8951    274.53787    177.07128    2169.7191    21936.478   0.73915788 
  380000       380000     1801.137    1513.1727    1215.9707    297.20203    173.51466    900.11041    21936.478   0.73915788 
  381000       381000    2111.6638    1533.5057    1254.9167    278.58902    179.07212      1807.19    21936.478   0.73915788 
  382000       382000    1732.6813    1513.1496    1231.4905    281.65915    175.72928     686.2057    21936.478   0.73915788 
  383000       383000     1773.171    1536.5346    1229.7989    306.73566     175.4879    739.67137    21936.478   0.73915788 
  384000       384000     1591.834    1537.2314    1225.0263     312.2051    174.80686    170.67543    21936.478   0.73915788 
  385000       385000    1358.1543    1552.4932    1235.0481     317.4451    176.23694   -607.45883    21936.478   0.73915788 
  386000       386000    1702.7317    1499.1336    1205.7252     293.4084    172.05267    636.40102    21936.478   0.73915788 
  387000       387000    1480.7034    1463.5367    1197.6039    265.93275    170.89379    53.659287    21936.478   0.73915788 
  388000       388000    1223.2852    1517.8266    1225.4367    292.38988    174.86542   -920.66893    21936.478   0.73915788 
  389000       389000    1373.1312    1466.1351    1167.5169    298.61823    166.60048   -290.70882    21936.478   0.73915788 
  390000       390000    1606.2545    1492.1599    1227.5139    264.64599    175.16183    356.63361    21936.478   0.73915788 
  391000       391000    1494.9575    1531.4552    1235.4912    295.96402    176.30017   -114.08361    21936.478   0.73915788 
  392000       392000    1538.5903    1505.5152    1266.7389    238.77632     180.7591    103.38531    21936.478   0.73915788 
  393000       393000    1317.5109     1458.037    1168.5759    289.46114    166.75159   -439.25251    21936.478   0.73915788 
  394000       394000    1332.5198    1517.6229    1226.1508    291.47216    174.96732   -578.59022    21936.478   0.73915788 
  395000       395000    1317.5796    1435.4981    1203.3351    232.16299     171.7116   -368.58606    21936.478   0.73915788 
  396000       396000    1642.6117    1531.4472    1214.4445    317.00267    173.29688     347.4748    21936.478   0.73915788 
  397000       397000    1507.3308    1584.7677    1281.8139    302.95377    182.91026   -242.05001    21936.478   0.73915788 
  398000       398000    1237.1289    1521.8152    1205.9779    315.83737    172.08872   -889.86421    21936.478   0.73915788 
  399000       399000    1724.1436    1514.0005    1241.2389    272.76161    177.12034    656.85923    21936.478   0.73915788 
  400000       400000    1690.8379    1516.3429    1230.1682    286.17475    175.54059    545.43128    21936.478   0.73915788 
  401000       401000    2030.2648    1479.9747    1222.7178    257.25687    174.47745    1720.0811    21936.478   0.73915788 
  402000       402000    1983.1568    1585.4649    1229.4181    356.04681    175.43356    1243.0938    21936.478   0.73915788 
  403000       403000    1659.1821    1530.9735    1236.1157    294.85781    176.38929    400.75077    21936.478   0.73915788 
  404000       404000    1455.9307    1543.1661    1247.5414    295.62463    178.01969   -272.67787    21936.478   0.73915788 
  405000       405000    981.18482    1452.5621    1177.8747    274.68735     168.0785   -1473.4175    21936.478   0.73915788 
  406000       406000    1787.8293    1535.7322    1223.3305    312.40169    174.56487    787.99805    21936.478   0.73915788 
  407000       407000    2054.6531    1484.9767    1211.0094    273.96731     172.8067    1780.6781    21936.478   0.73915788 
  408000       408000    1645.7489    1511.5799    1175.2692    336.31071     167.7067    419.38184    21936.478   0.73915788 
  409000       409000    1481.3387    1478.8436    1180.8483    297.99521    168.50283    7.7992937    21936.478   0.73915788 
  410000       410000    1791.4065    1512.5438    1220.5332    292.01059    174.16571    871.66104    21936.478   0.73915788 
  411000       411000    1624.2243      1512.01    1255.8765    256.13348    179.20908    350.75618    21936.478   0.73915788 
  412000       412000     1501.703    1505.7717    1231.2528    274.51895    175.69536   -12.718038    21936.478   0.73915788 
  413000       413000    1726.8835    1511.5759    1214.2656    297.31023    173.27135    673.00235    21936.478   0.73915788 
  414000       414000    1633.4627     1465.638    1218.9562    246.68179    173.94068    524.58154    21936.478   0.73915788 
  415000       415000    1153.4411    1455.0094    1200.7368    254.27257    171.34084   -942.63326    21936.478   0.73915788 
  416000       416000    1052.4419     1526.821    1195.9307    330.89035    170.65502   -1482.8006    21936.478   0.73915788 
  417000       417000    1663.9083    1573.1295     1263.048    310.08156    180.23242    283.75351    21936.478   0.73915788 
  418000       418000    1454.4217    1515.2417    1218.6171    296.62452     173.8923   -190.10933    21936.478   0.73915788 
  419000       419000     1775.804     1485.294    1194.4325    290.86145    170.44124    908.06792    21936.478   0.73915788 
  420000       420000    2130.8826    1491.4013    1197.5685     293.8328    170.88874    1998.8721    21936.478   0.73915788 
  421000       421000    1800.0567    1521.2375    1206.1439    315.09356    172.11242    871.52515    21936.478   0.73915788 
  422000       422000    1427.8079    1454.9484    1194.0074    260.94094    170.38058   -84.834986    21936.478   0.73915788 
  423000       423000    1447.4694    1544.8056    1248.4518    296.35373     178.1496   -304.25069    21936.478   0.73915788 
  424000       424000    1721.0135     1489.629    1214.2738    275.35513    173.27252    723.25504    21936.478   0.73915788 
  425000       425000    1632.0023    1556.2084    1254.2047    302.00366    178.97052    236.91459    21936.478   0.73915788 
  426000       426000    1545.9596     1492.336     1224.461    267.87492     174.7262    167.61529    21936.478   0.73915788 
  427000       427000    1645.5737    1471.2875    1203.6486    267.63891    171.75634    544.77868    21936.478   0.73915788 
  428000       428000    2194.3877    1519.0202    1224.7937    294.22649    174.77367    2111.0443    21936.478   0.73915788 
  429000       429000    1854.3253    1537.7988    1212.7348    325.06407    173.05291     989.3894    21936.478   0.73915788 
  430000       430000    1199.7329    1479.1512    1221.3086     257.8426    174.27636   -873.39772    21936.478   0.73915788 
  431000       431000    1615.7067    1613.2675    1286.5271    326.74042     183.5828    7.6243948    21936.478   0.73915788 
  432000       432000    1945.7929     1509.578    1206.2097    303.36835     172.1218     1363.508    21936.478   0.73915788 
  433000       433000    1571.9065    1532.4513    1232.2374    300.21393    175.83586     123.3278    21936.478   0.73915788 
  434000       434000    1450.0001    1441.6735    1212.4862    229.18724    173.01744    26.026996    21936.478   0.73915788 
  435000       435000    2033.6744    1555.6589    1258.0721    297.58683    179.52238    1494.1672    21936.478   0.73915788 
  436000       436000    1918.3348    1529.5679     1237.645    291.92287    176.60751    1215.1964    21936.478   0.73915788 
  437000       437000    1514.5714    1474.1936    1203.7279    270.46566    171.76766    126.21178    21936.478   0.73915788 
  438000       438000    1793.1597    1519.8913    1266.5221    253.36927    180.72816    854.17454    21936.478   0.73915788 
  439000       439000    1976.2079    1501.8818    1222.2911    279.59072    174.41656    1482.6349    21936.478   0.73915788 
  440000       440000    1695.6576    1528.1761    1230.5098    297.66634    175.58933    523.50895    21936.478   0.73915788 
  441000       441000    1608.2874    1558.0732    1254.1423    303.93096    178.96161      156.958    21936.478   0.73915788 
  442000       442000    1621.7983    1516.1992    1238.7891    277.41011    176.77077    330.07859    21936.478   0.73915788 
  443000       443000    1729.3853    1564.5799    1256.3033    308.27664    179.26997    515.14412    21936.478   0.73915788 
  444000       444000    1916.0352    1523.1133     1218.957    304.15629     173.9408    1228.1838    21936.478   0.73915788 
  445000       445000    1207.5889    1453.8167      1201.54    252.27676    171.45545   -769.65199    21936.478   0.73915788 
  446000       446000    1539.0824    1533.2047    1216.1861    317.01859     173.5454    18.372565    21936.478   0.73915788 
  447000       447000    1206.8396    1482.7311     1209.994     272.7371     172.6618   -862.37357    21936.478   0.73915788 
  448000       448000    1171.9187    1506.8003    1213.8221    292.97818    173.20806   -1046.7633    21936.478   0.73915788 
  449000       449000    1331.1395    1524.4005    1242.3953    282.00516    177.28536   -604.08947    21936.478   0.73915788 
  450000       450000    1427.9461    1481.4854    1206.2302    275.25523    172.12473   -167.35176    21936.478   0.73915788 
  451000       451000    2078.2005    1554.2627    1215.7497    338.51294    173.48313      1637.71    21936.478   0.73915788 
  452000       452000    1722.9278    1504.8882    1203.2519     301.6363    171.69973    681.54206    21936.478   0.73915788 
  453000       453000    1810.9631     1515.481    1258.0374    257.44364    179.51743    923.60945    21936.478   0.73915788 
  454000       454000    1473.0576    1549.4226    1263.4033    286.01924    180.28313   -238.69932    21936.478   0.73915788 
  455000       455000    1923.2424    1532.7785    1229.0143    303.76424    175.37594    1220.5008    21936.478   0.73915788 
  456000       456000    1928.0721    1556.4826    1243.0581     313.4245    177.37994    1161.5037    21936.478   0.73915788 
  457000       457000    1838.0282    1523.5086    1229.3438    294.16486    175.42295    983.11634    21936.478   0.73915788 
  458000       458000    1595.7874    1468.3593    1194.3342    274.02511    170.42722      398.311    21936.478   0.73915788 
  459000       459000    1516.3627    1503.3089    1235.5958    267.71304     176.3151    40.803353    21936.478   0.73915788 
  460000       460000     1804.169    1548.1684    1239.3417    308.82674    176.84962     800.1993    21936.478   0.73915788 
  461000       461000    1824.3956    1508.3517    1208.5104    299.84123    172.45011    987.88108    21936.478   0.73915788 
  462000       462000    1390.2178    1485.4746    1229.9363    255.53833     175.5075   -297.75102    21936.478   0.73915788 
  463000       463000     1933.717    1507.5337    1239.3751    268.15866    176.85438    1332.1515    21936.478   0.73915788 
  464000       464000    1914.6678    1546.4668    1220.6192    325.84753    174.17799    1150.9123    21936.478   0.73915788 
  465000       465000    1375.9961    1537.2577    1239.2168    298.04092    176.83179   -504.06666    21936.478   0.73915788 
  466000       466000    1202.5892    1519.9288    1189.0427    330.88608    169.67213   -991.93096    21936.478   0.73915788 
  467000       467000     1599.506     1499.713    1200.3649    299.34804    171.28777    311.93006    21936.478   0.73915788 
  468000       468000    1746.6496    1473.1419    1197.4945    275.64736    170.87818    854.92263    21936.478   0.73915788 
  469000       469000    2160.1927    1543.1971    1230.4356    312.76151    175.57875    1928.5873    21936.478   0.73915788 
  470000       470000    1862.4496    1563.5153    1272.7398    290.77548    181.61541    934.40041    21936.478   0.73915788 
  471000       471000    2298.0699    1524.7997    1235.0539     289.7458    176.23776    2417.0657    21936.478   0.73915788 
  472000       472000    1658.5216    1421.8259    1171.6492    250.17668    167.19014    739.85677    21936.478   0.73915788 
  473000       473000    1745.2316    1509.7373    1225.6718    284.06546    174.89898    736.10144    21936.478   0.73915788 
  474000       474000      1888.41    1548.3057    1251.1941    297.11156    178.54092    1063.0884    21936.478   0.73915788 
  475000       475000    2205.6127     1472.813    1214.2202    258.59278    173.26488    2290.5641    21936.478   0.73915788 
  476000       476000    1926.3449    1524.1326    1219.1626    304.97005    173.97013    1257.2236    21936.478   0.73915788 
  477000       477000    1409.3078     1506.077     1193.593    312.48402    170.32145   -302.47843    21936.478   0.73915788 
  478000       478000    1445.3662    1501.6612    1229.6807    271.98053    175.47103   -175.96523    21936.478   0.73915788 
  479000       479000    1470.4385    1524.4726     1226.997    297.47566    175.08807   -168.89847    21936.478   0.73915788 
  480000       480000    1454.7042    1487.6243    1214.1045    273.51983    173.24836   -102.90068    21936.478   0.73915788 
  481000       481000    1908.1563    1534.2751    1244.3026    289.97243    177.55753    1168.6671    21936.478   0.73915788 
  482000       482000    1594.0734    1521.0093    1205.2992     315.7101    171.99188    228.38158    21936.478   0.73915788 
  483000       483000    1317.9708    1446.6122     1179.953    266.65911    168.37507   -402.10332    21936.478   0.73915788 
  484000       484000    1739.4324    1538.2712    1255.8832    282.38796    179.21004    628.78387    21936.478   0.73915788 
  485000       485000    1509.1257    1534.7319    1250.2042    284.52767    178.39966   -80.039067    21936.478   0.73915788 
  486000       486000    1840.2805    1480.0867    1246.0547    234.03202    177.80754    1125.8835    21936.478   0.73915788 
  487000       487000    1796.4642      1548.68    1243.3512    305.32882    177.42176    774.51678    21936.478   0.73915788 
  488000       488000    1515.5075    1522.9705    1224.7206    298.24989    174.76324   -23.327544    21936.478   0.73915788 
  489000       489000    1280.1723    1468.1128    1191.8655    276.24727    170.07494   -587.45912    21936.478   0.73915788 
  490000       490000    1643.5997     1553.601     1276.461    277.13998    182.14642    281.31539    21936.478   0.73915788 
  491000       491000    1598.7234    1488.4739    1203.5382    284.93574    171.74058    344.61489    21936.478   0.73915788 
  492000       492000    1499.5792    1453.0699    1180.3863    272.68357     168.4369    145.37753    21936.478   0.73915788 
  493000       493000    1339.3817    1532.0759    1244.6111    287.46484    177.60154   -602.31822    21936.478   0.73915788 
  494000       494000    2156.5703    1532.8471    1237.1174    295.72974    176.53222     1949.616    21936.478   0.73915788 
  495000       495000    1576.8169    1492.1655    1220.2571    271.90846    174.12631    264.60091    21936.478   0.73915788 
  496000       496000     2081.221    1568.2651    1246.8901    321.37504    177.92675    1603.3826    21936.478   0.73915788 
  497000       497000    1347.9405    1513.7639    1248.2247    265.53922    178.11719   -518.32618    21936.478   0.73915788 
  498000       498000    1951.2601    1547.5399    1238.8097    308.73017    176.77371     1261.937    21936.478   0.73915788 
  499000       499000     1798.012    1466.0152    1220.0118    246.00342    174.09131    1037.7463    21936.478   0.73915788 
  500000       500000    1630.2845    1522.8624    1234.4452     288.4172     176.1509    335.77698    21936.478   0.73915788 
Loop time of 1091.65 on 24 procs for 500000 steps with 2352 atoms

Performance: 39.573 ns/day, 0.606 hours/ns, 458.022 timesteps/s
94.2% CPU use with 24 MPI tasks x 1 OpenMP threads

MPI task timing breakdown:
Section |  min time  |  avg time  |  max time  |%varavg| %total
---------------------------------------------------------------
Pair    | 549.18     | 646.13     | 726.51     | 211.0 | 59.19
Bond    | 28.527     | 29.479     | 30.11      |   8.7 |  2.70
Kspace  | 126.13     | 206.02     | 302.27     | 371.7 | 18.87
Neigh   | 31.339     | 31.443     | 31.543     |   1.1 |  2.88
Comm    | 146.45     | 147.82     | 149.55     |   7.1 | 13.54
Output  | 0.019753   | 0.023603   | 0.10838    |  11.5 |  0.00
Modify  | 7.1619     | 8.0745     | 8.9208     |  17.1 |  0.74
Other   |            | 22.66      |            |       |  2.08

Nlocal:    98 ave 106 max 90 min
Histogram: 5 2 0 2 0 3 5 3 3 1
Nghost:    5785.46 ave 5834 max 5731 min
Histogram: 2 3 1 3 2 2 3 2 3 3
Neighs:    60349.6 ave 73187 max 53959 min
Histogram: 4 7 1 4 4 0 1 1 1 1

Total # of neighbors = 1448390
Ave neighs/atom = 615.812
Ave special neighs/atom = 9.14286
Neighbor list builds = 11891
Dangerous builds = 0

write_data butane_afterr_nvt1.data
Ewald initialization ...
  using 12-bit tables for long-range coulomb (src/kspace.cpp:332)
  G vector (1/distance) = 0.189385
  estimated absolute RMS force accuracy = 0.00391074
  estimated relative force accuracy = 1.17771e-05
  KSpace vectors: actual max1d max3d = 128 4 364
                  kxmax kymax kzmax  = 4 4 4
Total wall time: 0:18:11
