LAMMPS (3 Mar 2020)
  using 1 OpenMP thread(s) per MPI task
units           real
atom_style      full
boundary        p p p


pair_style      lj/cut/coul/long 12.0
pair_modify     tail yes mix geometric
bond_style      harmonic
angle_style     harmonic
dihedral_style  opls

kspace_style    ewald 1.0e-5
#special_bonds   lj/coul 0.0 0.0 0.5

neighbor        2.0 bin
neigh_modify    every 1 delay 0 check yes

read_data       butane_afterr_nvt1_200K.data
  orthogonal box = (0 0 0) to (28.898 28.898 28.898)
  2 by 3 by 4 MPI processor grid
  reading atoms ...
  2352 atoms
  reading velocities ...
  2352 velocities
  scanning bonds ...
  1 = max bonds/atom
  scanning angles ...
  6 = max angles/atom
  scanning dihedrals ...
  11 = max dihedrals/atom
  reading bonds ...
  2184 bonds
  reading angles ...
  4032 angles
  reading dihedrals ...
  4536 dihedrals
  4 = max # of 1-2 neighbors
  6 = max # of 1-3 neighbors
  9 = max # of 1-4 neighbors
  13 = max # of special neighbors
  special bonds CPU = 0.000935518 secs
  read_data CPU = 0.0243411 secs

group           mobile union all
2352 atoms in group mobile

#minimize 1.0e-8 1.0e-10 400000 400000
#write_data buate_after_min.data

#fix DEF all deform 1 x final 0.0 28.0629 y final 0.0 28.0629 z final 0.0 28.0629 units box
#run 1
#unfix DEF

thermo_style    custom step time enthalpy etotal ke pe temp press vol density
#thermo_modify   line multi
thermo          1000
thermo_modify   flush yes
timestep 1.0


## Equil NPT ##
#fix      NPT  all nvt temp 272 272 100 iso 1 1 1000
#restart 1000000 liqbut1.restart

#fix      NPT  all npt temp 160 160 50 iso 1 1 500
#dump myDump all atom 2000 butane_npt.lammpstrj

#run 5000000
#write_data ethanol_after_npt.data



fix 1 all nvt temp 200 200 100 # iso 1.0 1.0 1000.0
#dump            DUMPxyz all xyz 1 but1_clms_20ps.xyz
#dump            DUMP all custom 1000 mol.lammpstrj id type x y z fx fy fz mol

run 1000000
Ewald initialization ...
  using 12-bit tables for long-range coulomb (src/kspace.cpp:332)
  G vector (1/distance) = 0.188509
  estimated absolute RMS force accuracy = 0.00426774
  estimated relative force accuracy = 1.28522e-05
  KSpace vectors: actual max1d max3d = 128 4 364
                  kxmax kymax kzmax  = 4 4 4
Neighbor list info ...
  update every 1 steps, delay 0 steps, check yes
  max neighbors/atom: 2000, page size: 100000
  master list distance cutoff = 14
  ghost atom cutoff = 14
  binsize = 7, bins = 5 5 5
  1 neighbor lists, perpetual/occasional/extra = 1 0 0
  (1) pair lj/cut/coul/long, perpetual
      attributes: half, newton on
      pair build: half/bin/newton
      stencil: half/bin/3d/newton
      bin: standard
Per MPI rank memory allocation (min/avg/max) = 19.27 | 19.28 | 19.28 Mbytes
Step Time Enthalpy TotEng KinEng PotEng Temp Press Volume Density 
       0            0    2569.3245    2173.4437    1502.6708    670.77291    214.42574    1124.8254    24132.558     0.671894 
    1000         1000    1961.6866    1922.5608    1379.3312    543.22965    196.82561    111.16916    24132.558     0.671894 
    2000         2000    1937.5007    1985.4266      1419.63    565.79664    202.57611   -136.17296    24132.558     0.671894 
    3000         3000    2093.5216    1953.4555     1371.346    582.10951    195.68615    397.97311    24132.558     0.671894 
    4000         4000    1891.2443    1967.6232    1386.0882    581.53499    197.78982   -217.01717    24132.558     0.671894 
    5000         5000    2049.8264    1961.4311    1399.4165    562.01458    199.69172    251.15972    24132.558     0.671894 
    6000         6000    2304.4537    1954.0964    1387.3727    566.72369    197.97312    995.47858    24132.558     0.671894 
    7000         7000    1331.6366    1978.7306    1409.3432    569.38743    201.10822   -1838.6037    24132.558     0.671894 
    8000         8000    2157.3816    2014.8036     1410.745    604.05855    201.30826    405.11028    24132.558     0.671894 
    9000         9000    1639.9306    1968.3443    1387.7669     580.5775    198.02936   -933.12977    24132.558     0.671894 
   10000        10000    1596.9844    1979.7544     1390.247    589.50744    198.38327   -1087.5738    24132.558     0.671894 
   11000        11000    1740.7394    1959.8881    1364.7057    595.18237    194.73861   -622.67233    24132.558     0.671894 
   12000        12000    1613.4217    1977.5246    1386.0814    591.44325    197.78885   -1034.5343    24132.558     0.671894 
   13000        13000    1710.3189    1935.1487    1373.3131    561.83559    195.96686   -638.81439    24132.558     0.671894 
   14000        14000    1829.2777    2003.2169    1430.4573    572.75961    204.12113   -494.21752    24132.558     0.671894 
   15000        15000    1715.3688    1959.4339    1376.5186    582.91533    196.42427   -693.46805    24132.558     0.671894 
   16000        16000    2570.2796    2021.1523    1435.0204    586.13194    204.77227    1560.2486    24132.558     0.671894 
   17000        17000    2114.2893    1981.0952    1406.0613    575.03396     200.6399    378.44769    24132.558     0.671894 
   18000        18000    1073.3743    1959.6599    1361.4163    598.24362    194.26922   -2518.2245    24132.558     0.671894 
   19000        19000    1823.8947     2050.926    1413.4368    637.48913    201.69237   -645.06937    24132.558     0.671894 
   20000        20000    1988.9345    1979.7133    1380.6466    599.06673    197.01332    26.200459    24132.558     0.671894 
   21000        21000    1952.3996    1992.9411    1397.6078    595.33328    199.43362   -115.19152    24132.558     0.671894 
   22000        22000    1991.3717    2013.6247    1414.4212    599.20343    201.83284    -63.22784    24132.558     0.671894 
   23000        23000     1766.542    2023.8788    1419.5378    604.34099    202.56296   -731.17725    24132.558     0.671894 
   24000        24000    2035.6478    1965.6768    1396.5355    569.14131    199.28061    198.81028    24132.558     0.671894 
   25000        25000    1598.7888    1983.4608    1447.8288    535.63202    206.59998   -1092.9777    24132.558     0.671894 
   26000        26000    2201.4053     2005.844    1451.7609    554.08317    207.16108    555.65284    24132.558     0.671894 
   27000        27000     2284.488    1947.5167    1402.9414    544.57535     200.1947    957.44469    24132.558     0.671894 
   28000        28000    1842.2576    1959.6679    1400.7557     558.9122    199.88283   -333.60094    24132.558     0.671894 
   29000        29000    2108.9904    2033.1125    1444.7203    588.39221    206.15641    215.59354    24132.558     0.671894 
   30000        30000    1819.4257    1963.4291    1390.2879     573.1412     198.3891   -409.16037    24132.558     0.671894 
   31000        31000    2075.2755    1941.1466    1375.1897    565.95694    196.23464    381.10353    24132.558     0.671894 
   32000        32000    1670.5864    2013.3083    1420.3081    593.00012    202.67288    -973.7839    24132.558     0.671894 
   33000        33000    1890.6374    1968.9848    1377.8158    591.16897    196.60938   -222.61014    24132.558     0.671894 
   34000        34000    1805.8568    1988.4733    1395.2935    593.17981    199.10338   -518.87258    24132.558     0.671894 
   35000        35000    2614.1594    1967.5695    1374.5761    592.99339    196.14708    1837.1715    24132.558     0.671894 
   36000        36000     1991.743    1979.6816    1443.8284    535.85316    206.02915    34.270331    24132.558     0.671894 
   37000        37000     1815.071    1959.8191    1393.4164    566.40273    198.83552   -411.27614    24132.558     0.671894 
   38000        38000     1952.311    1947.1877    1382.3881    564.79965    197.26183    14.556826    24132.558     0.671894 
   39000        39000    1850.3291    2012.1756    1414.0725    598.10311    201.78308   -459.85837    24132.558     0.671894 
   40000        40000    2064.6063    1985.1591     1412.912    572.24716    201.61747     225.7352    24132.558     0.671894 
   41000        41000    2362.9426    2014.0121    1411.1535    602.85868    201.36654     991.4245    24132.558     0.671894 
   42000        42000    1790.4663    1918.4545    1373.3413     545.1132    195.97088   -363.65586    24132.558     0.671894 
   43000        43000    1715.0916    1937.1088    1382.4437    554.66516    197.26976   -630.82293    24132.558     0.671894 
   44000        44000     1898.952    2019.3109    1453.1653    566.14558    207.36149   -341.97869    24132.558     0.671894 
   45000        45000    2242.6842    1958.2949    1400.4474    557.84751    199.83883    808.04203    24132.558     0.671894 
   46000        46000    1841.2056    1946.2572    1368.4416    577.81561    195.27172    -298.4858    24132.558     0.671894 
   47000        47000    1765.3588    2016.0754    1434.5496    581.52589    204.70508   -712.36733    24132.558     0.671894 
   48000        48000    1195.7509    1934.1742    1373.1313    561.04287    195.94092   -2098.0996    24132.558     0.671894 
   49000        49000    1637.9537    1958.8937    1368.6984    590.19529    195.30836   -911.89459    24132.558     0.671894 
   50000        50000     1437.999    2011.1184    1402.4374    608.68103    200.12279   -1628.4178    24132.558     0.671894 
   51000        51000    1776.5045    1969.0359    1396.7973    572.23865    199.31797   -547.04402    24132.558     0.671894 
   52000        52000    1838.0993    1955.6929     1390.739    564.95384    198.45348   -334.12135    24132.558     0.671894 
   53000        53000    1817.7893    1980.4393     1388.839    591.60024    198.18235   -462.14137    24132.558     0.671894 
   54000        54000     2359.138    1972.6771    1386.3789    586.29823     197.8313    1098.0607    24132.558     0.671894 
   55000        55000    2092.1498    1978.5909    1421.5143    557.07657      202.845    322.65766    24132.558     0.671894 
   56000        56000    1348.1688    1994.9152    1373.5673     621.3479    196.00313   -1837.6158    24132.558     0.671894 
   57000        57000    1805.3802    1912.8254    1371.1881    541.63733    195.66363   -305.28667    24132.558     0.671894 
   58000        58000    1452.0257    1969.5474      1373.43    596.11743    195.98354   -1470.4469    24132.558     0.671894 
   59000        59000    1537.7792    2035.6363    1418.8525    616.78378    202.46517   -1414.5732    24132.558     0.671894 
   60000        60000    1903.6655    1966.6995    1411.4367    555.26275    201.40696   -179.09982    24132.558     0.671894 
   61000        61000    2356.1049    1981.8713    1426.2618    555.60956    203.52245    1063.3187    24132.558     0.671894 
   62000        62000     1957.842    1961.5507     1356.666    604.88473    193.59138   -10.537657    24132.558     0.671894 
   63000        63000    1595.3129    1911.3429    1381.8025    529.54042    197.17826   -897.94362    24132.558     0.671894 
   64000        64000    1535.7316    1994.2834     1409.308    584.97546     201.1032   -1302.8943    24132.558     0.671894 
   65000        65000     1828.948     1956.076    1387.8946    568.18143    198.04759   -361.21196    24132.558     0.671894 
   66000        66000    1524.9311    1956.8017    1381.3019    575.49984    197.10683   -1227.0842    24132.558     0.671894 
   67000        67000    1647.1093    2026.1647    1413.5139    612.65075    201.70337   -1077.0193    24132.558     0.671894 
   68000        68000    1628.1057    1998.0331    1382.7449    615.28818    197.31274   -1051.0835    24132.558     0.671894 
   69000        69000    2382.8329    1964.2661    1413.6872     550.5789     201.7281    1189.2839    24132.558     0.671894 
   70000        70000    2079.0743    2020.7477    1450.1177    570.63002     206.9266    165.72461    24132.558     0.671894 
   71000        71000    2194.6483      1956.14    1385.9509    570.18912    197.77023     677.6794    24132.558     0.671894 
   72000        72000    1946.0689    1989.3514    1414.4249    574.92651    201.83337   -122.97962    24132.558     0.671894 
   73000        73000    2245.0557    2058.9364    1426.6891     632.2473    203.58343    528.82508    24132.558     0.671894 
   74000        74000    2238.3807    1950.7287    1407.3226    543.40603     200.8199    817.31262    24132.558     0.671894 
   75000        75000    2210.2092    2028.7482    1418.2646    610.48362    202.38128    515.58932    24132.558     0.671894 
   76000        76000    1788.2926    1947.5648    1404.0596    543.50516    200.35427   -452.54375    24132.558     0.671894 
   77000        77000    1701.2605    1963.0674    1418.6078     544.4596    202.43025   -743.87806    24132.558     0.671894 
   78000        78000    2181.7391    2036.2022    1420.9634     615.2388    202.76638    413.51766    24132.558     0.671894 
   79000        79000    1828.9329    1963.2491    1414.4363    548.81274      201.835   -381.63571    24132.558     0.671894 
   80000        80000    2118.8012    1966.8229    1392.0657    574.75727    198.64278     431.8196    24132.558     0.671894 
   81000        81000    1652.7818    2008.8456    1390.3767    618.46895    198.40177   -1011.6926    24132.558     0.671894 
   82000        82000    2205.5665    1970.3665    1400.2716    570.09489    199.81375    668.27935    24132.558     0.671894 
   83000        83000    2149.0575    2032.4246     1406.414    626.01055    200.69025    331.39195    24132.558     0.671894 
   84000        84000    1746.1259    1960.1656    1376.5256    583.64003    196.42527   -608.15629    24132.558     0.671894 
   85000        85000    2314.2276    2005.6162    1414.7522    590.86394    201.88007    876.86504    24132.558     0.671894 
   86000        86000    2247.1986    1923.1649    1365.5696    557.59532    194.86189    920.68454    24132.558     0.671894 
   87000        87000    1797.0677    1953.0044    1401.6594    551.34496    200.01177   -443.06663    24132.558     0.671894 
   88000        88000    1680.7339    1994.6453    1399.3898    595.25557    199.68791   -891.92412    24132.558     0.671894 
   89000        89000     1505.196    1967.1261    1392.6423     574.4838    198.72507   -1312.4929    24132.558     0.671894 
   90000        90000    1793.6382    1946.6236    1393.5221     553.1015    198.85061   -434.68106    24132.558     0.671894 
   91000        91000    2162.5228    2029.2987    1425.7377    603.56106    203.44766    378.53262    24132.558     0.671894 
   92000        92000    2164.4956    1990.8802    1426.0153    564.86487    203.48727    493.29763    24132.558     0.671894 
   93000        93000    1841.1338    1941.8965    1382.9136    558.98289    197.33682   -286.29951    24132.558     0.671894 
   94000        94000    2266.3871    2005.6051    1403.0284    602.57664    200.20713    740.96631    24132.558     0.671894 
   95000        95000    1970.5159      1980.55    1417.3927    563.15735    202.25686   -28.510267    24132.558     0.671894 
   96000        96000    2016.2845    1987.0682    1371.6972    615.37102    195.73627    83.013109    24132.558     0.671894 
   97000        97000    1708.2726    2011.8161    1411.5123    600.30382    201.41775   -862.46548    24132.558     0.671894 
   98000        98000    1698.8121    1967.5625    1369.1343    598.42816    195.37056   -763.60691    24132.558     0.671894 
   99000        99000    2235.6091    1961.4525    1396.6482    564.80429     199.2967    778.96776    24132.558     0.671894 
  100000       100000    1338.8687    1986.2029    1423.8515    562.35135    203.17851   -1839.2861    24132.558     0.671894 
  101000       101000    1563.8951    1985.1311    1399.3855    585.74554     199.6873   -1196.8677    24132.558     0.671894 
  102000       102000    1561.9758    1921.8254    1399.0349    522.79056    199.63727   -1022.4494    24132.558     0.671894 
  103000       103000    1254.6763    1978.3778     1399.718    578.65982    199.73475   -2056.2704    24132.558     0.671894 
  104000       104000    1749.0067    1948.1843    1401.0774    547.10695    199.92872   -565.92827    24132.558     0.671894 
  105000       105000    1766.5351    1964.9108    1390.1844    574.72643    198.37433   -563.64968    24132.558     0.671894 
  106000       106000    1938.9318    2001.8959    1395.4065    606.48939    199.11951   -178.90148    24132.558     0.671894 
  107000       107000    1908.0499    1967.2963     1411.188    556.10836    201.37147   -168.33822    24132.558     0.671894 
  108000       108000     2070.761    2019.8063    1404.9306    614.87569    200.47856     144.7789    24132.558     0.671894 
  109000       109000     1730.467    1967.2707    1401.2918     565.9789    199.95932   -672.83613    24132.558     0.671894 
  110000       110000    1897.1572    1988.2138     1423.086    565.12781    203.06927   -258.72122    24132.558     0.671894 
  111000       111000    1963.1006    1956.4763    1385.0263    571.44996    197.63829    18.821923    24132.558     0.671894 
  112000       112000    1526.3188    2004.0601    1401.5076    602.55253    199.99011   -1357.4177    24132.558     0.671894 
  113000       113000     1562.999    1929.5114    1379.4172    550.09418    196.83789   -1041.3803    24132.558     0.671894 
  114000       114000      1770.64    1979.0809    1424.3053    554.77563    203.24326   -592.24816    24132.558     0.671894 
  115000       115000    2032.8592    2024.6869    1450.2594    574.42752    206.94682    23.219886    24132.558     0.671894 
  116000       116000    1679.5077    1977.1794     1405.474    571.70544     200.5561   -845.78181    24132.558     0.671894 
  117000       117000    1567.1118    1972.2773     1393.597    578.68022     198.8613   -1151.2064    24132.558     0.671894 
  118000       118000    1596.9424    2000.7043    1411.5283    589.17598    201.42003   -1147.2182    24132.558     0.671894 
  119000       119000    1954.0018    1924.4986    1403.7836    520.71493     200.3149    83.828225    24132.558     0.671894 
  120000       120000    1699.7303    1944.8514    1417.4716    527.37971    202.26813   -696.46841    24132.558     0.671894 
  121000       121000     1983.034    2033.9279    1404.2464    629.68146    200.38093   -144.60593    24132.558     0.671894 
  122000       122000    1803.0857    1976.2904    1391.8416     584.4488    198.61081   -492.13073    24132.558     0.671894 
  123000       123000    1368.9517    1969.3804    1381.1974    588.18302    197.09192   -1706.0125    24132.558     0.671894 
  124000       124000    1873.6408    1944.0566    1393.8409    550.21571     198.8961    -200.0741    24132.558     0.671894 
  125000       125000    1698.9261    1999.4538    1421.9103     577.5435    202.90151    -853.8967    24132.558     0.671894 
  126000       126000    2079.8586    2025.3559    1415.8199    609.53597    202.03243    154.85998    24132.558     0.671894 
  127000       127000     1877.745    1943.4992    1407.8807    535.61849    200.89953   -186.82888    24132.558     0.671894 
  128000       128000    1843.3744    1954.6079    1390.6605    563.94742    198.44227   -316.05065    24132.558     0.671894 
  129000       129000    1995.2381     2015.215    1389.1742    626.04079    198.23018   -56.760629    24132.558     0.671894 
  130000       130000    1667.0487    1953.7386    1375.7439    577.99477    196.31372   -814.57898    24132.558     0.671894 
  131000       131000    2033.6004     2030.072    1428.6761    601.39586    203.86696    10.025381    24132.558     0.671894 
  132000       132000    1889.0313    1969.0253    1376.0466    592.97863    196.35693    -227.2888    24132.558     0.671894 
  133000       133000    1810.3882    1986.0163    1382.5149    603.50138    197.27993   -499.01646    24132.558     0.671894 
  134000       134000    2281.6575    2019.9805    1434.4486     585.5319    204.69068    743.50918    24132.558     0.671894 
  135000       135000    1966.2902    1984.6631    1416.6977    567.96541    202.15768   -52.203412    24132.558     0.671894 
  136000       136000    1985.8343    1943.5219    1365.7245    577.79745    194.88399     120.2231    24132.558     0.671894 
  137000       137000    2018.5065    1987.7279    1404.8991    582.82877    200.47407    87.451907    24132.558     0.671894 
  138000       138000    1919.5545    1937.4095    1366.2764    571.13305    194.96275   -50.731951    24132.558     0.671894 
  139000       139000    1449.6065    2000.8397    1440.6174    560.22225    205.57094   -1566.2321    24132.558     0.671894 
  140000       140000    1552.6307    1928.0809    1378.7631    549.31785    196.74455   -1066.7756    24132.558     0.671894 
  141000       141000    1694.9256     1951.111    1397.1139    553.99712    199.36315   -727.90572    24132.558     0.671894 
  142000       142000     1784.328     2017.758    1404.7972    612.96081    200.45953   -663.25023    24132.558     0.671894 
  143000       143000     1861.247    1969.0141    1406.4984    562.51572    200.70228   -306.20136    24132.558     0.671894 
  144000       144000    2359.6614    1990.7417    1387.6989    603.04275    198.01967    1048.2205    24132.558     0.671894 
  145000       145000    1847.7126    1908.7429     1387.935    520.80789    198.05335   -173.40667    24132.558     0.671894 
  146000       146000    1879.2161    2006.0855    1380.8865    625.19892    197.04756   -360.47695    24132.558     0.671894 
  147000       147000    1500.1802    1997.6829    1400.1998     597.4831    199.80349   -1413.5663    24132.558     0.671894 
  148000       148000    1723.3945    1968.0029    1362.9549    605.04803    194.48878   -695.01186    24132.558     0.671894 
  149000       149000    1517.6967    2017.4486    1413.9746    603.47395    201.76911   -1419.9569    24132.558     0.671894 
  150000       150000    1700.4877    1956.1214    1394.2115    561.90989    198.94899   -726.33812    24132.558     0.671894 
  151000       151000    1689.9192    2021.8948    1379.8889    642.00587    196.90521   -943.25028    24132.558     0.671894 
  152000       152000    1574.4634    2003.5678    1426.7392    576.82859    203.59058   -1219.2247    24132.558     0.671894 
  153000       153000    2170.6052    1973.9017    1399.4121    574.48961     199.6911     558.8982    24132.558     0.671894 
  154000       154000    1678.4275    1966.7533    1435.8528    530.90045    204.89105     -819.227    24132.558     0.671894 
  155000       155000    1777.6214    1951.0204    1382.4724    568.54802    197.27385   -492.68266    24132.558     0.671894 
  156000       156000    1795.9274    1992.7842    1417.1301    575.65413    202.21939   -559.33395    24132.558     0.671894 
  157000       157000    1980.9546    1952.5068    1395.3116    557.19525    199.10596    80.829404    24132.558     0.671894 
  158000       158000    1295.7296    2020.7985    1419.3173    601.48123    202.53149   -2060.1557    24132.558     0.671894 
  159000       159000    2017.0799    2007.9776    1392.3508    615.62684    198.68347    25.862548    24132.558     0.671894 
  160000       160000    1900.7343    1957.9149    1408.0197    549.89524    200.91936   -162.46854    24132.558     0.671894 
  161000       161000    2339.7946    2026.9714     1445.517    581.45441     206.2701     888.8319    24132.558     0.671894 
  162000       162000    2146.4942    1970.9419    1404.8993    566.04257     200.4741    498.80108    24132.558     0.671894 
  163000       163000    1906.1506    1946.1423     1387.543     558.5993    197.99742   -113.62948    24132.558     0.671894 
  164000       164000    1694.7492    1985.9573    1394.6639    591.29345    199.01354   -827.41676    24132.558     0.671894 
  165000       165000    2081.7374     1938.435    1378.7035    559.73149    196.73605     407.1687    24132.558     0.671894 
  166000       166000    2321.2855    2012.5011    1410.6083    601.89287    201.28874    877.35643    24132.558     0.671894 
  167000       167000    2017.7807    1973.9261    1388.5124    585.41372    198.13575    124.60513    24132.558     0.671894 
  168000       168000    2310.3344    1993.9648    1407.4757    586.48901    200.84175    898.90854    24132.558     0.671894 
  169000       169000    2065.4776    1912.5814    1368.5686    544.01282    195.28983    434.42772    24132.558     0.671894 
  170000       170000      1546.21    1943.2926    1365.3242    577.96839    194.82687   -1128.2403    24132.558     0.671894 
  171000       171000    2505.8857    2026.4078    1449.0513    577.35649    206.77443    1362.3521    24132.558     0.671894 
  172000       172000    1815.5191    1936.4906    1381.3077    555.18285    197.10767   -343.71924    24132.558     0.671894 
  173000       173000     1913.398    2012.0659    1430.5418    581.52407    204.13319   -280.34748    24132.558     0.671894 
  174000       174000    1949.6328    1942.6315    1385.9709    556.66063    197.77308    19.892896    24132.558     0.671894 
  175000       175000    1720.5245    1980.8205    1402.8768    577.94368     200.1855   -739.58533    24132.558     0.671894 
  176000       176000    2144.4242    2020.1975    1421.1498    599.04763    202.79299    352.96838    24132.558     0.671894 
  177000       177000    2132.4791    2024.5802    1443.5077    581.07245    205.98338    306.57579    24132.558     0.671894 
  178000       178000    1646.8293    1972.0727     1407.091    564.98166    200.78685   -924.12179    24132.558     0.671894 
  179000       179000    1837.6038    2000.3832    1414.6129    585.77029    201.86019   -462.50898    24132.558     0.671894 
  180000       180000    1686.9734    2017.0878    1415.6368    601.45099     202.0063   -937.96183    24132.558     0.671894 
  181000       181000    1980.0806    1969.2248     1390.609    578.61579    198.43492    30.844953    24132.558     0.671894 
  182000       182000    1494.6053    1919.3405    1379.1803     540.1602    196.80409   -1206.8102    24132.558     0.671894 
  183000       183000    1779.9168    1973.6781    1381.5643    592.11385    197.14428   -550.53886    24132.558     0.671894 
  184000       184000    2059.9289    2025.6674    1425.2486    600.41875    203.37787    97.348093    24132.558     0.671894 
  185000       185000    1709.8069     2000.829    1412.7147     588.1143    201.58933   -826.88821    24132.558     0.671894 
  186000       186000    1436.0595     1988.409    1407.9851    580.42385    200.91443   -1569.4039    24132.558     0.671894 
  187000       187000    1825.7256    1927.8344    1372.2899    555.54453    195.82085   -290.12429    24132.558     0.671894 
  188000       188000     1853.046    1987.6854    1432.0209     555.6645    204.34425   -382.55424    24132.558     0.671894 
  189000       189000      1762.73    1934.5781    1369.4421    565.13594    195.41449   -488.27616    24132.558     0.671894 
  190000       190000    1838.1366    1994.2415    1434.7711    559.47049    204.73669   -443.54466    24132.558     0.671894 
  191000       191000    2034.6531     1921.848    1355.1047     566.7433    193.36859    320.51573    24132.558     0.671894 
  192000       192000    1569.3474    1959.5626    1380.5241    579.03846    196.99584   -1108.7277    24132.558     0.671894 
  193000       193000    1991.0146     2006.384    1397.5543    608.82978    199.42599   -43.669589    24132.558     0.671894 
  194000       194000    1626.6164    1949.4935    1409.4345    540.05895    201.12126   -917.39821    24132.558     0.671894 
  195000       195000    1822.9857    1948.1953    1360.2645    587.93079    194.10488   -355.76099    24132.558     0.671894 
  196000       196000    1776.0985    1995.1883    1412.8006    582.38769    201.60158   -622.50514    24132.558     0.671894 
  197000       197000     1999.681    2026.1171     1413.769    612.34807    201.73977   -75.113513    24132.558     0.671894 
  198000       198000      1549.62    1961.8923     1378.409    583.48331    196.69402   -1171.3993    24132.558     0.671894 
  199000       199000    1923.1954     1998.478    1396.2948    602.18324    199.24626   -213.90225    24132.558     0.671894 
  200000       200000    1949.4261    1922.9661    1369.3014    553.66464    195.39441     75.18141    24132.558     0.671894 
  201000       201000    2021.2839    1989.4996    1419.1836    570.31607    202.51241    90.309357    24132.558     0.671894 
  202000       202000    1481.5172    1982.2248    1399.2257    582.99908    199.66449   -1422.6725    24132.558     0.671894 
  203000       203000    1708.5109    1896.7039    1364.7038    532.00006    194.73834   -534.71733    24132.558     0.671894 
  204000       204000    1861.0038    2041.7755    1440.8211    600.95439    205.60001   -513.63102    24132.558     0.671894 
  205000       205000    2008.0465    1975.2264     1407.696    567.53036    200.87318    93.252455    24132.558     0.671894 
  206000       206000    1961.5899    1977.6161    1401.6752    575.94085    200.01403   -45.535591    24132.558     0.671894 
  207000       207000     1906.933    1996.7844    1429.2939    567.49046    203.95512   -255.29696    24132.558     0.671894 
  208000       208000    1864.5735    1909.0222    1343.7762    565.24594    191.75205   -126.29313    24132.558     0.671894 
  209000       209000    2148.5604    1978.8913    1388.9975    589.89377    198.20497    482.08501    24132.558     0.671894 
  210000       210000    2139.8709    2011.0796    1421.2295    589.85008    202.80436    365.93779    24132.558     0.671894 
  211000       211000    2157.2337    1987.0162    1404.8045    582.21168    200.46057    483.64311    24132.558     0.671894 
  212000       212000    1640.7484    1992.8985    1376.2917    616.60677    196.39189   -1000.5724    24132.558     0.671894 
  213000       213000    1139.4669     1958.596    1370.4431    588.15295    195.55731   -2327.4112    24132.558     0.671894 
  214000       214000     1455.754    2024.2875    1389.6441    634.64347    198.29723   -1615.3879    24132.558     0.671894 
  215000       215000    2057.8544    1968.0987     1402.522    565.57664    200.13487    255.02494    24132.558     0.671894 
  216000       216000    1662.8074    1991.9315    1399.5442    592.38734    199.70994   -935.14818    24132.558     0.671894 
  217000       217000    2036.0629    2014.1629    1440.2435    573.91946    205.51758    62.224854    24132.558     0.671894 
  218000       218000    2532.1912    2019.7579    1422.9225    596.83538    203.04594    1455.9892    24132.558     0.671894 
  219000       219000     1735.539    1950.2414    1393.7937    556.44765    198.88937   -610.03899    24132.558     0.671894 
  220000       220000    1846.4026    1976.2408     1411.687    564.55388    201.44267   -368.91262    24132.558     0.671894 
  221000       221000    2214.5155    1989.2247    1386.1618     603.0629    197.80032    640.12421    24132.558     0.671894 
  222000       222000    1898.7666    1960.8221     1384.733     576.0891    197.59644   -176.31977    24132.558     0.671894 
  223000       223000    1712.5061    2011.4704    1402.5015    608.96895    200.13194   -849.45456    24132.558     0.671894 
  224000       224000    1910.5724    1966.2909    1366.5911    599.69987    195.00765   -158.31457    24132.558     0.671894 
  225000       225000    2574.8841    1997.9798     1430.674    567.30587    204.15205    1639.1719    24132.558     0.671894 
  226000       226000    1673.0316    1972.0781    1379.1514    592.92677    196.79996   -849.68796    24132.558     0.671894 
  227000       227000    2244.4694     1952.486    1393.0644    559.42167    198.78529    829.61946    24132.558     0.671894 
  228000       228000    2313.8881    2028.3029    1380.5639    647.73894    197.00153    811.44023    24132.558     0.671894 
  229000       229000      1328.99    1987.6559    1399.4035    588.25239    199.68987   -1871.4832    24132.558     0.671894 
  230000       230000    1634.2324    1965.8427    1409.6253    556.21736    201.14848   -942.21218    24132.558     0.671894 
  231000       231000     2050.468    2022.6476    1435.3398    587.30783    204.81785     79.04661    24132.558     0.671894 
  232000       232000    1694.2889    1930.1564     1401.408    528.74844    199.97589    -670.1759    24132.558     0.671894 
  233000       233000      2278.46    2010.0375    1392.6689    617.36858    198.72886    762.67537    24132.558     0.671894 
  234000       234000     1834.359    1987.9226    1441.0298    546.89272    205.62979   -436.32387    24132.558     0.671894 
  235000       235000    2166.8527    1964.7413    1391.7005    573.04084    198.59067    574.26388    24132.558     0.671894 
  236000       236000    1595.6374    1990.9322    1397.4241    593.50812    199.40741   -1123.1605    24132.558     0.671894 
  237000       237000    1456.7079    1998.9329    1431.9558    566.97717    204.33496   -1540.6371    24132.558     0.671894 
  238000       238000    2687.3569    2046.0307    1420.7294    625.30126      202.733    1822.2157    24132.558     0.671894 
  239000       239000    1762.7695    2004.6349    1422.6661    581.96881    203.00935   -687.21794    24132.558     0.671894 
  240000       240000    1479.0236     1973.668     1381.705    591.96303    197.16435   -1405.4451    24132.558     0.671894 
  241000       241000     1384.713    2022.2323    1434.8224    587.40996    204.74401    -1811.399    24132.558     0.671894 
  242000       242000    2025.2495    1986.3251    1398.8065    587.51854    199.60468    110.59697    24132.558     0.671894 
  243000       243000    1733.3765    1970.5673    1400.5727    569.99456    199.85671     -673.936    24132.558     0.671894 
  244000       244000    1624.1467    1955.3227    1357.4092    597.91349    193.69743   -940.97831    24132.558     0.671894 
  245000       245000    1507.4869    1952.0489    1400.7639    551.28496    199.88399   -1263.1447    24132.558     0.671894 
  246000       246000    2246.3643    2008.4209    1421.7044    586.71651    202.87213    676.07426    24132.558     0.671894 
  247000       247000    1985.2946    1952.4635    1380.3762    572.08733    196.97474    93.283824    24132.558     0.671894 
  248000       248000    1613.0254    1984.6085    1412.5956    572.01296    201.57233    -1055.788    24132.558     0.671894 
  249000       249000     1843.678    1978.9274    1382.7658    596.16155    197.31573   -384.28722    24132.558     0.671894 
  250000       250000    2399.7937    1951.1562    1377.4001    573.75606    196.55007    1274.7243    24132.558     0.671894 
  251000       251000    1984.7616    1955.2788    1368.2576    587.02119    195.24546     83.77002    24132.558     0.671894 
  252000       252000    1802.7629    1996.0224    1400.8938    595.12858    199.90252   -549.11266    24132.558     0.671894 
  253000       253000     1711.667    1971.6117    1400.3686     571.2431    199.82758   -738.58698    24132.558     0.671894 
  254000       254000     2216.184    2004.4237     1405.472    598.95176    200.55581    601.67954    24132.558     0.671894 
  255000       255000    2254.1518    1951.0189    1378.6505    572.36833    196.72849    861.29883    24132.558     0.671894 
  256000       256000    1584.9831    1998.1734    1399.0194    599.15404    199.63505   -1174.0075    24132.558     0.671894 
  257000       257000    2585.4128      1990.23    1398.8036    591.42646    199.60426     1691.107    24132.558     0.671894 
  258000       258000    1844.2949    1917.1613    1365.7222    551.43905    194.88367   -207.03695    24132.558     0.671894 
  259000       259000    2033.4753    1987.8445    1381.7769    606.06757    197.17461    129.65206    24132.558     0.671894 
  260000       260000    2042.5451    2001.2125     1402.173    599.03946    200.08506    117.43958    24132.558     0.671894 
  261000       261000    1712.8456    1947.4852    1396.8715    550.61367    199.32856   -666.68707    24132.558     0.671894 
  262000       262000    2030.3925    1969.4315    1390.6481    578.78335     198.4405       173.21    24132.558     0.671894 
  263000       263000    1996.0368    2045.3224    1437.2231    608.09933    205.08658   -140.03633    24132.558     0.671894 
  264000       264000    2173.1198    1977.1829    1404.6891    572.49383     200.4441     556.7201    24132.558     0.671894 
  265000       265000    1533.2948     1917.005    1359.5006     557.5044    193.99587   -1090.2449    24132.558     0.671894 
  266000       266000    2145.0511    1968.4625    1370.9512     597.5113    195.62982    501.74559    24132.558     0.671894 
  267000       267000    1717.7688    1950.9393    1387.2911     563.6482    197.96147   -662.51297    24132.558     0.671894 
  268000       268000    1681.9307    1927.3888    1387.2493    540.13947    197.95551   -697.42616    24132.558     0.671894 
  269000       269000    1649.2453    1974.9447     1391.973    582.97178    198.62955   -925.41748    24132.558     0.671894 
  270000       270000    1844.8564    2026.3161    1411.4332    614.88298    201.40645   -515.58577    24132.558     0.671894 
  271000       271000    2098.7525    1937.0527    1372.9246    564.12809    195.91142    459.44157    24132.558     0.671894 
  272000       272000    1963.9156    2007.8589    1419.3497    588.50913    202.53612   -124.85693    24132.558     0.671894 
  273000       273000     1730.666    1949.1144    1386.5392    562.57516    197.85418   -620.68264    24132.558     0.671894 
  274000       274000    1994.9505    2035.0307    1414.9091    620.12159    201.90246   -113.88085    24132.558     0.671894 
  275000       275000    1322.9475    1951.3358    1363.0171    588.31868    194.49766   -1785.4546    24132.558     0.671894 
  276000       276000    2423.2402    1962.6405    1406.3033    556.33721    200.67444    1308.7129    24132.558     0.671894 
  277000       277000     1623.408    1991.5828      1401.25     590.3328    199.95335   -1046.1039    24132.558     0.671894 
  278000       278000    1823.1015    1956.6902    1387.5006    569.18961    197.99136   -379.56861    24132.558     0.671894 
  279000       279000    1507.9323     2010.701    1426.1525    584.54854    203.50685   -1428.5286    24132.558     0.671894 
  280000       280000    1977.2058    2018.9542    1442.8539    576.10021    205.89009   -118.62058    24132.558     0.671894 
  281000       281000    1565.5037    1966.1076    1383.2922    582.81543    197.39084   -1138.2455    24132.558     0.671894 
  282000       282000    1331.1506    2000.4956    1399.4769    601.01877    199.70034    -1901.826    24132.558     0.671894 
  283000       283000    1697.8629    1938.0714     1386.842    551.22943    197.89738   -682.51022    24132.558     0.671894 
  284000       284000    2535.3492    1986.8866     1394.684    592.20263    199.01641    1558.3597    24132.558     0.671894 
  285000       285000    2108.8558    2027.1424    1430.6316    596.51072    204.14601    232.17424    24132.558     0.671894 
  286000       286000    2004.6921    2002.6746    1413.1005    589.57416    201.64437    5.7323254    24132.558     0.671894 
  287000       287000    1998.2988    1933.3874    1374.8043    558.58306    196.17965    184.43423    24132.558     0.671894 
  288000       288000    1947.0975     1995.626    1412.7405    582.88553    201.59301   -137.88517    24132.558     0.671894 
  289000       289000    1796.6185    2014.0244    1424.9085    589.11583    203.32934   -617.72065    24132.558     0.671894 
  290000       290000    2336.7954    1973.3322    1405.7582    567.57401    200.59665    1032.7167    24132.558     0.671894 
  291000       291000    1683.4641    1975.0583    1417.9726    557.08575    202.33961   -828.51373    24132.558     0.671894 
  292000       292000    1998.7199    2059.5476    1453.8622    605.68533    207.46093   -172.83123    24132.558     0.671894 
  293000       293000    1789.3592    1980.8026    1408.4139    572.38869    200.97562   -543.95274    24132.558     0.671894 
  294000       294000    2220.8669    1996.3555    1418.0658    578.28974     202.3529    637.90955    24132.558     0.671894 
  295000       295000    1748.1537     1984.239    1428.5069    555.73209    203.84281   -670.79457    24132.558     0.671894 
  296000       296000      1373.16    1960.7812    1354.2945    606.48669    193.25297   -1669.6222    24132.558     0.671894 
  297000       297000    1730.6627    1951.1617    1360.9685    590.19317    194.20533   -626.50914    24132.558     0.671894 
  298000       298000    1601.6626    1984.2545    1406.4486    577.80592    200.69518   -1087.0676    24132.558     0.671894 
  299000       299000    1769.4112     1993.215    1402.5978    590.61718    200.14569    -635.8993    24132.558     0.671894 
  300000       300000    2106.6887    1963.8473    1389.5689    574.27844     198.2865     405.8587    24132.558     0.671894 
  301000       301000    2183.7865    2017.9268    1404.7658    613.16106    200.45504    471.26097    24132.558     0.671894 
  302000       302000    2207.1711    1954.0431    1397.1728    556.87025    199.37155    719.21872    24132.558     0.671894 
  303000       303000    1424.7695    1991.0252     1411.702    579.32311    201.44482   -1608.9156    24132.558     0.671894 
  304000       304000    1347.1754    1935.3966    1365.0679    570.32868    194.79031   -1671.3271    24132.558     0.671894 
  305000       305000    2544.1701    1963.4135    1364.8147    598.59875    194.75417    1650.1177    24132.558     0.671894 
  306000       306000    2495.3208    2000.9378    1388.5181     612.4197    198.13656     1404.702    24132.558     0.671894 
  307000       307000    2053.1055    1966.4158    1376.3188    590.09706    196.39576    246.31332    24132.558     0.671894 
  308000       308000    1581.0402    1996.3192    1420.1049    576.21425    202.64389   -1179.9422    24132.558     0.671894 
  309000       309000    1396.2521    1958.3265    1377.5857    580.74082    196.57654   -1597.0354    24132.558     0.671894 
  310000       310000    1736.2346    1987.6566    1400.1511    587.50543    199.79655   -714.37123    24132.558     0.671894 
  311000       311000    1989.6049    2039.7412    1476.7597    562.98155    210.72832   -142.45353    24132.558     0.671894 
  312000       312000    1683.1629    1955.4937    1424.5356    530.95812    203.27612   -773.78002    24132.558     0.671894 
  313000       313000    2133.1074    1995.6953    1425.8324    569.86298    203.46117    390.43202    24132.558     0.671894 
  314000       314000    1789.4656    1992.5543    1398.5794    593.97481    199.57228   -577.04068    24132.558     0.671894 
  315000       315000    1962.3666    1997.4624    1425.9756    571.48679    203.48161   -99.718364    24132.558     0.671894 
  316000       316000    1535.7638     1955.527    1396.6971    558.82983    199.30368   -1192.6832    24132.558     0.671894 
  317000       317000    1610.3417    1965.1892    1372.3992    592.79001    195.83644   -1008.2367    24132.558     0.671894 
  318000       318000    1808.1561    2034.2706    1422.3343    611.93632    202.96201   -642.46467    24132.558     0.671894 
  319000       319000    1888.6868    1979.0688    1398.3486    580.72011    199.53934   -256.80435    24132.558     0.671894 
  320000       320000     1861.221    1988.1823    1416.3522    571.83011    202.10839   -360.73823    24132.558     0.671894 
  321000       321000    1602.7405    1933.3766    1373.2458    560.13084    195.95726   -939.44443    24132.558     0.671894 
  322000       322000    1866.3861     2014.082    1423.4838    590.59816    203.12604   -419.65182    24132.558     0.671894 
  323000       323000    1885.0748    1972.2708    1404.3658    567.90492    200.39797   -247.75186    24132.558     0.671894 
  324000       324000    1807.0101    1924.4737      1376.49    547.98368    196.42019   -333.75201    24132.558     0.671894 
  325000       325000     1722.546    2068.4549    1467.5772    600.87775    209.41801   -982.83927    24132.558     0.671894 
  326000       326000    2129.8122    1952.3019    1388.3158    563.98614    198.10769    504.36433    24132.558     0.671894 
  327000       327000    2358.5124    2017.9829    1399.0607     618.9222    199.64094    967.55485    24132.558     0.671894 
  328000       328000    1650.5563    1970.9038     1385.117    585.78684    197.65123   -910.21121    24132.558     0.671894 
  329000       329000    2211.3682    1985.1777    1436.5447    548.63301    204.98978    642.68031    24132.558     0.671894 
  330000       330000    2478.3304    2032.3639    1441.8909    590.47292    205.75267    1267.1354    24132.558     0.671894 
  331000       331000    1682.1359    1945.0484    1384.0717    560.97668    197.50208   -747.01951    24132.558     0.671894 
  332000       332000    1719.9967    2066.1181    1439.6982    626.41981    205.43978   -983.44284    24132.558     0.671894 
  333000       333000    1677.6505     1973.494    1382.9534    590.54065    197.34249   -840.58722    24132.558     0.671894 
  334000       334000    2675.2505    2011.8873    1458.5649    553.32244    208.13198    1884.8296    24132.558     0.671894 
  335000       335000    1561.7238    1946.1444    1386.8542    559.29018    197.89913   -1092.2634    24132.558     0.671894 
  336000       336000    1906.1258     1976.235     1378.707      597.528    196.73655   -199.20283    24132.558     0.671894 
  337000       337000    1567.6505    1961.1638    1413.8269    547.33693    201.74803   -1118.0986    24132.558     0.671894 
  338000       338000    1159.9022    1960.1412    1404.9204    555.22073    200.47711   -2273.7382    24132.558     0.671894 
  339000       339000    1866.0537    2004.8229    1376.8874    627.93557    196.47689   -394.28838    24132.558     0.671894 
  340000       340000    1690.3838    2011.3952    1410.2975    601.09771     201.2444   -912.09754    24132.558     0.671894 
  341000       341000    1899.3877    1960.2046    1383.9909    576.21376    197.49054    -172.8006    24132.558     0.671894 
  342000       342000    1701.4643    1980.5763     1398.207    582.36932    199.51913   -793.04768    24132.558     0.671894 
  343000       343000     1581.701    1942.5281    1395.2691    547.25898     199.0999   -1025.2267    24132.558     0.671894 
  344000       344000    2577.2522    2006.7686    1413.7542     593.0144    201.73766    1620.9288    24132.558     0.671894 
  345000       345000    2420.5428    1993.5349    1421.1047    572.43022    202.78654    1213.2679    24132.558     0.671894 
  346000       346000    1651.6477    2003.3773    1432.4773        570.9    204.40938   -999.37776    24132.558     0.671894 
  347000       347000    2432.9075    1952.0976    1390.1871    561.91043    198.37472    1366.1369    24132.558     0.671894 
  348000       348000    1980.3762    1983.8338    1406.5304    577.30331    200.70685   -9.8240501    24132.558     0.671894 
  349000       349000    2261.2633    1940.2896    1372.2407    568.04896    195.81383    911.99028    24132.558     0.671894 
  350000       350000     1694.394    1963.8778    1355.7267    608.15111    193.45734    -765.6908    24132.558     0.671894 
  351000       351000    1650.9884    2034.7255    1465.2709    569.45466     209.0889   -1090.3214    24132.558     0.671894 
  352000       352000    1859.7246    1963.8943    1385.0327    578.86161    197.63921   -295.97981    24132.558     0.671894 
  353000       353000    1871.8374     2011.061    1379.6736    631.38746    196.87447   -395.57929    24132.558     0.671894 
  354000       354000    1858.7426    1928.7827    1368.8973    559.88538    195.33674   -199.00648    24132.558     0.671894 
  355000       355000    2133.1284    2004.2504    1377.8837    626.36673    196.61906    366.18418    24132.558     0.671894 
  356000       356000    2086.0963    1971.5745    1396.0727    575.50179    199.21458    325.39345    24132.558     0.671894 
  357000       357000     2078.459    2013.5667    1421.7637    591.80301    202.88059    184.38004    24132.558     0.671894 
  358000       358000    1484.5053    1995.8094    1441.7465    554.06296    205.73206   -1452.7808    24132.558     0.671894 
  359000       359000    1531.7421    1916.1304    1344.7482    571.38221    191.89075   -1092.1718    24132.558     0.671894 
  360000       360000     2054.727    1955.4715    1402.8368    552.63466    200.17979    282.01703    24132.558     0.671894 
  361000       361000     2210.058    1997.7845    1429.6776    568.10688    204.00987    603.13776    24132.558     0.671894 
  362000       362000    1920.7984    1980.9028    1384.1944     596.7084    197.51959   -170.77614    24132.558     0.671894 
  363000       363000    2057.0154    2043.2496    1430.6503    612.59935    204.14867    39.112888    24132.558     0.671894 
  364000       364000    1905.3123    1962.3614    1399.9058    562.45561    199.76154   -162.09508    24132.558     0.671894 
  365000       365000    1942.1059      1911.48    1372.8153    538.66471    195.89583    87.017971    24132.558     0.671894 
  366000       366000    1478.9697    1998.6556    1405.0783    593.57721    200.49965   -1476.5958    24132.558     0.671894 
  367000       367000    1270.3545    1931.4487    1380.9457      550.503    197.05601   -1878.3829    24132.558     0.671894 
  368000       368000    1841.3534    1962.9768     1368.624     594.3528    195.29774   -345.57135    24132.558     0.671894 
  369000       369000    2210.1427    1998.3848    1401.2827    597.10217    199.95802    601.67259    24132.558     0.671894 
  370000       370000    1531.0389    1955.4147    1398.1792    557.23549    199.51517   -1205.7893    24132.558     0.671894 
  371000       371000    1680.9226    2025.7431    1435.8911    589.85203    204.89651   -979.74664    24132.558     0.671894 
  372000       372000    1617.9479    2013.5777    1399.5626    614.01508    199.71257   -1124.1123    24132.558     0.671894 
  373000       373000     1578.682    1892.9933    1345.8011     547.1922      192.041   -893.06032    24132.558     0.671894 
  374000       374000    1365.9261    1970.7103    1394.0374    576.67286    198.92415   -1718.3879    24132.558     0.671894 
  375000       375000    2051.0426    1966.4712    1370.3324    596.13879    195.54153    240.29475    24132.558     0.671894 
  376000       376000    1802.2168    1946.8483     1415.604    531.24431    202.00162   -410.94486    24132.558     0.671894 
  377000       377000    2145.6312    1983.7073    1449.5723    534.13494    206.84878    460.07852    24132.558     0.671894 
  378000       378000      2144.79    1962.7092    1376.7868    585.92239    196.46255    517.35046    24132.558     0.671894 
  379000       379000    2029.7688    1959.5355    1399.7569    559.77865    199.74029    199.55537    24132.558     0.671894 
  380000       380000    1620.6035    1999.6059    1429.6488    569.95708    204.00576   -1076.8685    24132.558     0.671894 
  381000       381000    1452.3334    2037.1411    1441.4719    595.66925    205.69287   -1661.6282    24132.558     0.671894 
  382000       382000    2114.8988    1969.7327    1406.8496    562.88301     200.7524    412.46415    24132.558     0.671894 
  383000       383000    2330.3974    1979.8725    1424.1361    555.73633    203.21912     995.9549    24132.558     0.671894 
  384000       384000    1911.9202    2004.9484    1423.1201    581.82826    203.07414   -264.32332    24132.558     0.671894 
  385000       385000    2405.1533    1978.4077     1400.719    577.68865    199.87758    1212.5225    24132.558     0.671894 
  386000       386000     1652.011    1966.8574    1393.3253    573.53217    198.82252   -894.58071    24132.558     0.671894 
  387000       387000    2930.2117    1987.6063    1412.2739    575.33239    201.52642    2678.2474    24132.558     0.671894 
  388000       388000    2157.2376     2005.202    1417.6202    587.58179    202.28932    431.98237    24132.558     0.671894 
  389000       389000    2239.1071    1963.6252    1408.7497    554.87551    201.02353    782.73326    24132.558     0.671894 
  390000       390000    2194.8528    2013.5617    1400.5296    613.03214    199.85056    515.10662    24132.558     0.671894 
  391000       391000    1637.5869    2005.7213    1419.8403    585.88095    202.60613    -1045.989    24132.558     0.671894 
  392000       392000    1796.5128    1978.9515    1423.9593    554.99227    203.19388   -518.36754    24132.558     0.671894 
  393000       393000    1866.7891    1939.7338    1397.2213     542.5125    199.37847   -207.25939    24132.558     0.671894 
  394000       394000    1827.6062    2000.0931    1408.6415    591.45159    201.00809   -490.09108    24132.558     0.671894 
  395000       395000    1453.3393    1945.7775    1397.2506    548.52696    199.38265   -1399.1764    24132.558     0.671894 
  396000       396000    1957.8188    2035.5353    1418.7799     616.7554     202.4548   -220.81769    24132.558     0.671894 
  397000       397000    1710.2001     1968.273    1376.0855    592.18755    196.36247   -733.26881    24132.558     0.671894 
  398000       398000    1484.7849    2054.1375    1458.3247    595.81287     208.0977   -1617.7152    24132.558     0.671894 
  399000       399000    2181.8909    1984.3174    1385.9307    598.38669    197.76734    561.37035    24132.558     0.671894 
  400000       400000    1779.3448    1950.4775    1363.2499    587.22754    194.53088   -486.24334    24132.558     0.671894 
  401000       401000    1701.1019    1989.7606    1408.4859    581.27469    200.98589    -820.1727    24132.558     0.671894 
  402000       402000    2036.7116    1919.6704    1413.0312    506.63918    201.63449    332.55193    24132.558     0.671894 
  403000       403000    2207.6151    1942.6189    1427.1896    515.42934    203.65484    752.94012    24132.558     0.671894 
  404000       404000    1495.7958     2000.348    1427.4198    572.92823    203.68769   -1433.5961    24132.558     0.671894 
  405000       405000      1182.43     1967.965    1360.0923    607.87273    194.08029   -2231.9593    24132.558     0.671894 
  406000       406000    1900.3518    1998.3792    1415.8914    582.48778    202.04263   -278.52766    24132.558     0.671894 
  407000       407000    1429.2428    1941.0676    1365.7053    575.36238    194.88125   -1454.2603    24132.558     0.671894 
  408000       408000    1815.9735    2013.2118    1405.6084    607.60338    200.57528   -560.41787    24132.558     0.671894 
  409000       409000    1825.9143    1980.9179     1372.878     608.0399    195.90478   -440.41552    24132.558     0.671894 
  410000       410000    1790.4971    1964.0352    1377.7447    586.29049    196.59924   -493.07803    24132.558     0.671894 
  411000       411000    1476.5758    2033.5739    1444.1098     589.4641     206.0693   -1582.6121    24132.558     0.671894 
  412000       412000    2001.5535    1974.9539    1357.2631    617.69077    193.67658    75.578305    24132.558     0.671894 
  413000       413000    1945.7018    1945.1501     1373.194    571.95611    195.94986    1.5676867    24132.558     0.671894 
  414000       414000    2706.2791    2013.1134    1429.4863    583.62716    203.98257    1969.5081    24132.558     0.671894 
  415000       415000    2560.3721    2007.7156    1422.2386    585.47706    202.94835     1570.276    24132.558     0.671894 
  416000       416000    1554.3795    2034.3673    1428.9546    605.41273     203.9067   -1363.8007    24132.558     0.671894 
  417000       417000    1478.2717    1969.5645    1390.2611    579.30334    198.38528    -1395.922    24132.558     0.671894 
  418000       418000    2143.3293    1999.4653    1409.8825    589.58283    201.18518     408.7641    24132.558     0.671894 
  419000       419000    1745.0731    2008.6931    1449.2471    559.44604    206.80237   -749.02988    24132.558     0.671894 
  420000       420000    1802.0137    1982.8201    1419.4559    563.36417    202.55127   -513.72942    24132.558     0.671894 
  421000       421000    1748.2209    1960.2754    1378.9998    581.27553    196.77834   -602.51536    24132.558     0.671894 
  422000       422000    2101.8951    1960.9141    1380.0975    580.81659    196.93497    400.57264    24132.558     0.671894 
  423000       423000    2371.5288    1972.6984    1405.0276    567.67076    200.49241    1133.2064    24132.558     0.671894 
  424000       424000    1857.0476    1929.3786     1385.163    544.21558     197.6578   -205.51574    24132.558     0.671894 
  425000       425000    2072.2564    2017.8375    1406.6887    611.14877    200.72944    154.62179    24132.558     0.671894 
  426000       426000    1571.3182    1959.5701    1400.3141    559.25602    199.81981   -1103.1495    24132.558     0.671894 
  427000       427000    1780.6745    1983.6658    1402.2203    581.44541    200.09182   -576.76395    24132.558     0.671894 
  428000       428000    2352.2575    2047.2012    1464.5457    582.65551    208.98542    866.76378    24132.558     0.671894 
  429000       429000    1939.2657    1988.2649    1390.8789    597.38606    198.47343   -139.22261    24132.558     0.671894 
  430000       430000    1824.1791    2048.1637    1417.6774    630.48632    202.29749   -636.41287    24132.558     0.671894 
  431000       431000    2054.0772    2007.6798    1419.7696    587.91014    202.59604    131.83002    24132.558     0.671894 
  432000       432000    1944.3881    1940.9591    1400.9775    539.98161    199.91448    9.7428413    24132.558     0.671894 
  433000       433000    1969.8098    1996.8588    1418.0132    578.84552    202.34541   -76.854871    24132.558     0.671894 
  434000       434000    2074.6484    2008.3324    1432.6634    575.66898    204.43594    188.42515    24132.558     0.671894 
  435000       435000    2043.1933     2006.117    1419.0227    587.09424    202.48946    105.34592    24132.558     0.671894 
  436000       436000    1715.4419    1940.1807    1402.1504    538.03033    200.08184   -638.55574    24132.558     0.671894 
  437000       437000    1500.1401    1994.7077    1400.8207    593.88699     199.8921   -1405.2269    24132.558     0.671894 
  438000       438000    2029.3904    2065.7602    1439.5728    626.18739    205.42188   -103.33854    24132.558     0.671894 
  439000       439000     2070.996    1964.9177    1397.7382    567.17954    199.45223    301.40272    24132.558     0.671894 
  440000       440000    2028.2982    2037.2407    1445.6462    591.59445    206.28854   -25.408458    24132.558     0.671894 
  441000       441000    1903.8164    1889.8048    1367.8665    521.93832    195.18964    39.811665    24132.558     0.671894 
  442000       442000    1909.1209    2000.0798    1397.2151    602.86467    199.37759   -258.44376    24132.558     0.671894 
  443000       443000    1896.5736    1961.1839    1409.7009    551.48304    201.15927   -183.57877    24132.558     0.671894 
  444000       444000    1876.4278    1965.4784    1407.2402    558.23818    200.80814    -253.0215    24132.558     0.671894 
  445000       445000    2291.9365    2052.3665    1439.3592    613.00731    205.39139    680.69618    24132.558     0.671894 
  446000       446000    1678.4505    1958.3852    1402.9086     555.4766    200.19004   -795.38527    24132.558     0.671894 
  447000       447000    2283.1126     2031.296    1430.1705    601.12554     204.0802    715.49258    24132.558     0.671894 
  448000       448000    1441.8306    1942.0974    1369.8171    572.28032    195.46799     -1421.42    24132.558     0.671894 
  449000       449000    1697.5537    1964.0324    1374.3335    589.69891    196.11246   -757.15217    24132.558     0.671894 
  450000       450000    1779.7839    2011.4886    1416.0731    595.41553    202.06856   -658.34816    24132.558     0.671894 
  451000       451000    1572.7582    1943.7402     1337.942    605.79816    190.91953   -1054.0801    24132.558     0.671894 
  452000       452000    2225.0354    1976.5985     1351.745    624.85353    192.88917    705.88963    24132.558     0.671894 
  453000       453000    1748.4771    2056.7058    1423.6795    633.02633    203.15396   -875.77772    24132.558     0.671894 
  454000       454000     1678.474    1972.4277    1396.2408    576.18688    199.23856   -835.21756    24132.558     0.671894 
  455000       455000    1519.3912    1989.0636    1399.8011    589.26253     199.7466   -1334.4916    24132.558     0.671894 
  456000       456000    1898.4896    2018.3286     1413.649    604.67965    201.72265   -340.50169    24132.558     0.671894 
  457000       457000    1847.2788    1943.0943     1354.095    588.99926    193.22451   -272.24288    24132.558     0.671894 
  458000       458000     2393.618    1972.7093    1411.6865     561.0228     201.4426    1195.9379    24132.558     0.671894 
  459000       459000    2608.8044    2027.2071    1448.7939    578.41317     206.7377    1652.5063    24132.558     0.671894 
  460000       460000     1683.283     1882.007    1352.7178    529.28918    193.02799   -564.63917    24132.558     0.671894 
  461000       461000    1832.3088    2010.8883    1430.4247    580.46359    204.11648   -507.40228    24132.558     0.671894 
  462000       462000    2156.7667    2065.6469     1413.691    651.95587    201.72864     258.9009    24132.558     0.671894 
  463000       463000    2068.7113     1972.223    1397.4374    574.78567     199.4093    274.15445    24132.558     0.671894 
  464000       464000    2460.4561    2009.0529    1415.7721    593.28075    202.02561    1282.5829    24132.558     0.671894 
  465000       465000    1757.7441    2010.8828    1431.9475    578.93535    204.33378   -719.24911    24132.558     0.671894 
  466000       466000    2227.3105    1946.4553     1421.333    525.12224    202.81913    798.00071    24132.558     0.671894 
  467000       467000    2104.3687    2021.8625    1426.7601    595.10239    203.59355    234.42686    24132.558     0.671894 
  468000       468000     1542.707    1939.3286    1412.7269    526.60165    201.59107   -1126.9305    24132.558     0.671894 
  469000       469000    1820.6294    2002.4456    1412.6255    589.82007     201.5766   -516.59853    24132.558     0.671894 
  470000       470000    1618.7851    2032.4534    1431.4321    601.02131    204.26023   -1175.3656    24132.558     0.671894 
  471000       471000    2266.4707    1983.0355    1410.5262    572.50937    201.27703    805.33104    24132.558     0.671894 
  472000       472000    1656.1765    1951.0433    1403.9471    547.09618    200.33823   -837.81225    24132.558     0.671894 
  473000       473000    1826.0919    1928.7149    1389.3391    539.37573    198.25372   -291.58508    24132.558     0.671894 
  474000       474000    2073.6484    2019.6372    1408.3645    611.27273    200.96857    153.46313    24132.558     0.671894 
  475000       475000    1332.5727    1940.8769    1381.6763    559.20054    197.16026   -1728.3891    24132.558     0.671894 
  476000       476000    1895.2432    2017.0985    1407.3841    609.71438    200.82867   -346.23058    24132.558     0.671894 
  477000       477000    2088.4966    2054.5035    1423.5726    630.93091     203.1387    96.585378    24132.558     0.671894 
  478000       478000    2160.5018    1971.0212    1360.8449    610.17632    194.18769    538.37558    24132.558     0.671894 
  479000       479000    1725.6325    1979.2807    1396.7195    582.56129    199.30686   -720.69686    24132.558     0.671894 
  480000       480000    1616.9386    1999.6736    1396.4807    603.19287     199.2728   -1087.4741    24132.558     0.671894 
  481000       481000    1834.5119    1914.1774    1356.8825    557.29488    193.62227   -226.35547    24132.558     0.671894 
  482000       482000    1796.1953    1977.5868    1368.8677    608.71914    195.33252   -515.39216    24132.558     0.671894 
  483000       483000    1988.2793    1984.5443    1404.4866    580.05773     200.4152     10.61222    24132.558     0.671894 
  484000       484000    2346.8942    1981.7424    1415.0197    566.72273    201.91824    1037.5145    24132.558     0.671894 
  485000       485000    2239.8709    1967.0932    1385.6779    581.41526    197.73127    775.04997    24132.558     0.671894 
  486000       486000     1619.052    1970.0613    1395.6105    574.45078    199.14861   -997.33099    24132.558     0.671894 
  487000       487000     1600.532    2015.4127     1423.215    592.19767    203.08769   -1178.8105    24132.558     0.671894 
  488000       488000    2639.7375    2037.4813    1430.0324    607.44896     204.0605    1711.2048    24132.558     0.671894 
  489000       489000     1669.757    1956.4584    1385.6789    570.77952    197.73142   -814.61173    24132.558     0.671894 
  490000       490000    2154.1639    1928.2184    1376.5881    551.63026    196.43419    641.98445    24132.558     0.671894 
  491000       491000    2389.4363    2018.7923    1402.4409    616.35142    200.12329    1053.1196    24132.558     0.671894 
  492000       492000       2193.2    1950.6091    1393.3951    557.21399    198.83249    689.27939    24132.558     0.671894 
  493000       493000    1569.8786    1972.7034    1393.8876    578.81578    198.90277   -1144.5559    24132.558     0.671894 
  494000       494000    2203.1334    2021.1099    1439.7095    581.40037    205.44139    517.18782    24132.558     0.671894 
  495000       495000    1806.5894    1958.4935     1397.289    561.20454    199.38813   -431.60889    24132.558     0.671894 
  496000       496000    1695.8212    1961.5146    1393.1915    568.32304    198.80344   -754.92088    24132.558     0.671894 
  497000       497000    1639.7124    1995.3209    1408.7538    586.56709    201.02412   -1010.3987    24132.558     0.671894 
  498000       498000    2763.1344    2029.3153    1408.1965    621.11877     200.9446    2085.0179    24132.558     0.671894 
  499000       499000    2385.0754    2000.0753    1415.9748    584.10049    202.05454    1093.9099    24132.558     0.671894 
  500000       500000    2060.1154    1959.7834    1388.9301    570.85335    198.19534    285.07568    24132.558     0.671894 
  501000       501000    1938.0258    1961.4747     1400.202    561.27269    199.80381   -66.625766    24132.558     0.671894 
  502000       502000    2122.4812    1984.6116    1417.2916    567.31995    202.24244    391.73224    24132.558     0.671894 
  503000       503000    2048.6102    1903.8417    1363.9001    539.94158    194.62366    411.33402    24132.558     0.671894 
  504000       504000    1145.2124    1969.5656    1361.7466    607.81897    194.31636   -2342.2544    24132.558     0.671894 
  505000       505000    2030.5813     1970.779     1359.228    611.55106    193.95696    169.91763    24132.558     0.671894 
  506000       506000    2102.7243    2021.5782    1405.0276    616.55064     200.4924    230.56244    24132.558     0.671894 
  507000       507000    1477.4854    2028.9374    1413.1693    615.76815    201.65419    -1566.854    24132.558     0.671894 
  508000       508000    2163.6156    2011.6551    1423.4432    588.21185    203.12025    431.76914    24132.558     0.671894 
  509000       509000    2628.3892     1941.266    1379.4319     561.8341    196.83999    1952.3395    24132.558     0.671894 
  510000       510000    1938.0177     2042.794    1418.6788    624.11515    202.44038    -297.7034    24132.558     0.671894 
  511000       511000    1635.9864    1974.9784     1419.849    555.12937    202.60737   -963.18603    24132.558     0.671894 
  512000       512000    1526.4352    1942.2157    1393.0072    549.20849    198.77713    -1181.367    24132.558     0.671894 
  513000       513000    1523.9578    1984.5845     1426.603    557.98151    203.57114   -1308.7897    24132.558     0.671894 
  514000       514000    1855.1782    1974.9679    1404.7315    570.23633    200.45016    -340.3612    24132.558     0.671894 
  515000       515000    2072.0549    1939.8471    1411.7049    528.14226    201.44523    375.64504    24132.558     0.671894 
  516000       516000    2182.2827    1991.2348    1394.6795    596.55523    199.01577    542.82897    24132.558     0.671894 
  517000       517000    2209.6803    1937.7679    1373.8239    563.94398    196.03975    772.59128    24132.558     0.671894 
  518000       518000    1941.0267    1977.7669    1396.1572    581.60964    199.22663   -104.39079    24132.558     0.671894 
  519000       519000    1284.9214    2023.3603    1413.3346    610.02571    201.67778    -2098.144    24132.558     0.671894 
  520000       520000     1835.855    1965.2873    1371.7811    593.50621    195.74825   -367.75915    24132.558     0.671894 
  521000       521000    1662.1815    1985.6938    1417.6387    568.05513    202.29196   -919.20336    24132.558     0.671894 
  522000       522000    1734.1675    2033.5004    1416.9315    616.56897    202.19104   -850.50189    24132.558     0.671894 
  523000       523000    1502.2531    1964.0434    1398.7745     565.2689    199.60011   -1312.0959    24132.558     0.671894 
  524000       524000    2075.1785    2032.2671    1421.5429    610.72427    202.84907    121.92507    24132.558     0.671894 
  525000       525000    1373.4568    1984.2978    1390.2994    593.99834    198.39074   -1735.5969    24132.558     0.671894 
  526000       526000    1564.2699    2045.3277     1416.895    628.43267    202.18584   -1366.8409    24132.558     0.671894 
  527000       527000    1664.0088    1971.1529    1375.4911    595.66185    196.27765   -872.69575    24132.558     0.671894 
  528000       528000    2048.9802    1976.7247    1397.7425    578.98217    199.45285    205.30143    24132.558     0.671894 
  529000       529000    2121.2447    1987.3936    1421.3341    566.05943    202.81929     380.3145    24132.558     0.671894 
  530000       530000    2224.7805    1965.5821    1406.2098    559.37239    200.66109     736.4666    24132.558     0.671894 
  531000       531000    2423.5896    1978.6419    1421.5557    557.08623     202.8509    1264.2404    24132.558     0.671894 
  532000       532000    1892.5721    1951.7213    1382.1889    569.53237     197.2334   -168.06209    24132.558     0.671894 
  533000       533000    1578.7892    1964.6875    1398.7278     565.9597    199.59344   -1096.4621    24132.558     0.671894 
  534000       534000    1939.3582    1955.7488    1365.2788    590.46993     194.8204   -46.570938    24132.558     0.671894 
  535000       535000    1874.5239    2026.6694    1434.2639     592.4056    204.66431   -432.29468    24132.558     0.671894 
  536000       536000    1526.0686    2003.8867     1419.858    584.02872    202.60865    -1357.636    24132.558     0.671894 
  537000       537000     1727.982    2019.5867    1395.9789    623.60773    199.20119   -828.54334    24132.558     0.671894 
  538000       538000    1796.0873    2024.7104    1428.0841    596.62628    203.78249   -649.59246    24132.558     0.671894 
  539000       539000    1815.7804    2005.4803    1404.6509    600.82941    200.43866     -538.999    24132.558     0.671894 
  540000       540000    2175.6156     1975.536    1391.4056    584.13047    198.54859    568.49077    24132.558     0.671894 
  541000       541000    2008.7885    1988.9608    1380.7259    608.23487    197.02464    56.337139    24132.558     0.671894 
  542000       542000    1963.6231    2037.5063    1428.8012    608.70512    203.88481   -209.92615    24132.558     0.671894 
  543000       543000    2053.4339    1984.8646    1415.7303    569.13433    202.01964    194.82758    24132.558     0.671894 
  544000       544000    2239.6529     1981.139    1382.1324    599.00662    197.22535    734.52148    24132.558     0.671894 
  545000       545000    2091.8438    2052.9796    1442.9504    610.02922    205.90385    110.42559    24132.558     0.671894 
  546000       546000    2192.1359    1984.3408    1414.4909    569.84987    201.84279     590.4133    24132.558     0.671894 
  547000       547000    1905.4635    1964.7311    1393.8206    570.91047    198.89321    -168.3984    24132.558     0.671894 
  548000       548000     2308.543    2010.1583    1416.1126    594.04562     202.0742    847.80784    24132.558     0.671894 
  549000       549000    1920.5773    1962.3965    1383.9987    578.39785    197.49165     -118.822    24132.558     0.671894 
  550000       550000    1238.6055    2004.1495    1408.4011    595.74844    200.97378   -2175.1585    24132.558     0.671894 
  551000       551000    1610.8138    1932.3172    1384.7205    547.59665    197.59466   -913.49528    24132.558     0.671894 
  552000       552000    1970.2465    2000.6183    1411.7707    588.84758    201.45462   -86.296049    24132.558     0.671894 
  553000       553000    1870.4809    1943.5314    1406.4562    537.07524    200.69625   -207.56008    24132.558     0.671894 
  554000       554000    2107.4941    1999.5569    1405.2796    594.27726    200.52837    306.68475    24132.558     0.671894 
  555000       555000    2102.3585    1962.0233    1390.4756    571.54773    198.41589    398.73758    24132.558     0.671894 
  556000       556000    2292.5177    1987.8799    1396.7272     591.1526    199.30797    865.57487    24132.558     0.671894 
  557000       557000    1871.4901    1980.8059    1389.3189    591.48701    198.25083   -310.60171    24132.558     0.671894 
  558000       558000    2084.9418    2011.3981    1443.2239    568.17412    205.94289    208.96154    24132.558     0.671894 
  559000       559000    1468.6766    1939.4153    1389.1058    550.30951    198.22042    -1337.521    24132.558     0.671894 
  560000       560000    2004.4182    1973.0435     1399.272    573.77154     199.6711    89.145506    24132.558     0.671894 
  561000       561000    1521.6188    1983.5721    1378.9838    604.58831    196.77605    -1312.559    24132.558     0.671894 
  562000       562000    2103.0551    1928.4966    1341.2937    587.20283    191.39781    495.97745    24132.558     0.671894 
  563000       563000     2175.441    1988.6826     1385.282    603.40062    197.67477    530.64121    24132.558     0.671894 
  564000       564000     1565.918    1974.5529    1367.4602    607.09269    195.13168   -1161.0642    24132.558     0.671894 
  565000       565000    1724.8867    2014.6426    1419.1737    595.46886      202.511   -823.29037    24132.558     0.671894 
  566000       566000    1768.3686    1978.5666    1393.7498    584.81682     198.8831   -597.24061    24132.558     0.671894 
  567000       567000    1452.4764    1959.9449    1419.6167    540.32817    202.57422   -1441.8823    24132.558     0.671894 
  568000       568000    1630.7908    1923.7798    1374.3304    549.44939    196.11203   -832.47677    24132.558     0.671894 
  569000       569000    2113.9975    1990.0377     1426.417    563.62068     203.5446    352.20997    24132.558     0.671894 
  570000       570000     2506.228    1968.9321    1394.3291    574.60307    198.96576    1526.6316    24132.558     0.671894 
  571000       571000    2035.5296    1971.6757    1404.9703    566.70544    200.48423     181.4296    24132.558     0.671894 
  572000       572000    1954.5955    1946.5977    1374.6124     571.9853    196.15226    22.724259    24132.558     0.671894 
  573000       573000     1744.484    1983.9541    1396.2323    587.72181    199.23734   -680.41194    24132.558     0.671894 
  574000       574000    1439.3115    1962.6225    1408.6087    554.01376    201.00341   -1486.8959    24132.558     0.671894 
  575000       575000    1806.2316    1970.1598    1400.4583    569.70152    199.84038   -465.77318    24132.558     0.671894 
  576000       576000    1884.3439    1996.7614     1395.761    601.00038     199.1701   -319.41453    24132.558     0.671894 
  577000       577000    1697.2305    1947.8712    1385.5828    562.28844     197.7177   -712.15152    24132.558     0.671894 
  578000       578000    1935.6775    1943.2017    1389.8749    553.32676    198.33018   -21.378827    24132.558     0.671894 
  579000       579000    1488.3875    1965.2949    1391.9996    573.29528    198.63335   -1355.0482    24132.558     0.671894 
  580000       580000    1795.1245    1973.1581    1396.5581    576.59999    199.28384   -505.85116    24132.558     0.671894 
  581000       581000    2272.0527     1944.474    1404.2502    540.22374    200.38148     930.7572    24132.558     0.671894 
  582000       582000    2114.1514    1959.5319    1384.7354    574.79648    197.59678    439.32408    24132.558     0.671894 
  583000       583000    2313.3704    1958.6665    1412.4193    546.24716    201.54717    1007.8289    24132.558     0.671894 
  584000       584000    2286.3438    2052.6158    1448.1904     604.4254    206.65158    664.09677    24132.558     0.671894 
  585000       585000    1904.4524    2004.5235    1431.2822    573.24127    204.23885   -284.33434    24132.558     0.671894 
  586000       586000    1996.3241    1943.4698    1374.1942    569.27553    196.09259    150.17642    24132.558     0.671894 
  587000       587000    2183.8178    2004.0537    1430.1612    573.89247    204.07888    510.76799    24132.558     0.671894 
  588000       588000    1764.6964    1969.2871     1387.335    581.95206    197.96774   -581.30843    24132.558     0.671894 
  589000       589000    2048.3865    2003.8843    1415.0399    588.84442    201.92112    126.44529    24132.558     0.671894 
  590000       590000    2133.9723    1921.9768     1385.168    536.80885    197.65851    602.34793    24132.558     0.671894 
  591000       591000    2002.8717    1999.3579    1440.6226    558.73528    205.57168    9.9837827    24132.558     0.671894 
  592000       592000    1887.2994    1986.9215    1384.1878     602.7337    197.51864   -283.05848    24132.558     0.671894 
  593000       593000    2473.1469    1988.7395    1404.0348     584.7047    200.35073    1376.3584    24132.558     0.671894 
  594000       594000     2002.824    1979.3221     1369.502    609.82008    195.42303    66.776645    24132.558     0.671894 
  595000       595000    2021.7023    1935.5568     1358.342     577.2148    193.83054     244.7673    24132.558     0.671894 
  596000       596000    1415.8937      1958.05    1390.1279    567.92207    198.36627   -1540.4417    24132.558     0.671894 
  597000       597000    1505.9437    1941.7535    1378.5485    563.20497    196.71393   -1238.2768    24132.558     0.671894 
  598000       598000    1894.7522    1934.7433    1390.5525    544.19084    198.42686   -113.62785    24132.558     0.671894 
  599000       599000    2560.4672    1995.5269     1409.384     586.1429    201.11405    1605.1784    24132.558     0.671894 
  600000       600000    1637.2737    1996.9471    1424.9744     571.9727    203.33874   -1021.9485    24132.558     0.671894 
  601000       601000    1454.3309    2019.2075    1417.8589    601.34857    202.32339   -1604.9973    24132.558     0.671894 
  602000       602000    1197.9307    1927.0276    1360.7608     566.2668    194.17569   -2071.6004    24132.558     0.671894 
  603000       603000    1734.4109    1966.2367    1376.6168    589.61985    196.43829   -658.69206    24132.558     0.671894 
  604000       604000    2280.6288    1997.2858    1359.3652    637.92064    193.97654    805.06921    24132.558     0.671894 
  605000       605000    2004.2019     2044.309    1440.9117    603.39726    205.61294   -113.95727    24132.558     0.671894 
  606000       606000    1948.1206    1966.6606    1407.0657    559.59491    200.78324   -52.678405    24132.558     0.671894 
[...]
  854000       854000    1830.7087    2001.3465    1376.2717    625.07475    196.38904   -484.83727    24132.558     0.671894 
  855000       855000    1969.7045    1970.2821    1413.5002     556.7819    201.70141   -1.6410201    24132.558     0.671894 
  856000       856000    1239.1146    1964.0941    1422.1642    541.92984    202.93774   -2059.9014    24132.558     0.671894 
  857000       857000      1760.87    1928.3647    1372.6958    555.66883    195.87878   -475.90662    24132.558     0.671894 
  858000       858000    1888.7588    1958.0674     1408.992    549.07541    201.05811   -196.92825    24132.558     0.671894 
  859000       859000    1955.9967    2006.2618    1405.0128    601.24903    200.49029   -142.81941    24132.558     0.671894 
  860000       860000    1836.5574     2011.328    1406.8225    604.50553    200.74853   -496.57995    24132.558     0.671894 
  861000       861000    2203.6632    1960.0439    1395.5299    564.51402    199.13711    692.20145    24132.558     0.671894 
  862000       862000    1957.2033    1906.5333    1365.6074    540.92588    194.86729    143.96987    24132.558     0.671894 
  863000       863000    1499.3705    1987.7038    1395.5025    592.20127    199.13321   -1387.5128    24132.558     0.671894 
  864000       864000    1685.9568    1955.8278    1377.9359    577.89187    196.62652   -766.79087    24132.558     0.671894 
  865000       865000    2611.1047    1932.2967    1344.9663    587.33035    191.92188    1928.7134    24132.558     0.671894 
  866000       866000    1754.2604    1970.1531    1392.5861    577.56701    198.71704   -613.42097    24132.558     0.671894 
  867000       867000    1963.8137    2013.4477    1455.3256    558.12213    207.66975   -141.02643    24132.558     0.671894 
  868000       868000    1948.5899    1956.5074    1382.3807    574.12677    197.26077   -22.496275    24132.558     0.671894 
  869000       869000    1819.2952    1975.1059    1426.0451     549.0608    203.49153   -442.70878    24132.558     0.671894 
  870000       870000     1586.721    1969.0601    1390.7601    578.30002    198.45648   -1086.3492    24132.558     0.671894 
  871000       871000    1334.4268     1988.497    1405.6749    582.82209    200.58477   -1858.4251    24132.558     0.671894 
  872000       872000    1768.6442    2002.0165    1393.3823    608.63425    198.83066    -663.0862    24132.558     0.671894 
  873000       873000    1807.9464     1962.122    1383.2882    578.83371    197.39028   -438.06258    24132.558     0.671894 
  874000       874000    1886.3214     1975.698     1393.145    582.55297    198.79681   -253.94804    24132.558     0.671894 
  875000       875000    2199.3428    2008.1603    1415.8745    592.28577    202.04022     543.2115    24132.558     0.671894 
  876000       876000     1665.874    1979.2563    1387.4091    591.84725    197.97831   -890.42067    24132.558     0.671894 
  877000       877000    1701.2126    1964.7623    1407.3525    557.40987    200.82415   -748.83012    24132.558     0.671894 
  878000       878000    2574.0342    2006.4748    1397.7618    608.71306    199.45559    1612.6199    24132.558     0.671894 
  879000       879000    1660.2238    1961.4565      1387.71    573.74651    198.02124   -855.89965    24132.558     0.671894 
  880000       880000    2285.3784    1957.2761    1409.4412    547.83483    201.12221    932.24496    24132.558     0.671894 
  881000       881000    2438.2474    2025.9129    1402.9363    622.97659    200.19398    1171.5759    24132.558     0.671894 
  882000       882000    1761.0394    1952.1727    1420.0423    532.13045    202.63494   -543.07167    24132.558     0.671894 
  883000       883000    1739.6971    1991.4181    1385.3664    606.05168    197.68683   -715.22092    24132.558     0.671894 
  884000       884000    2008.1806    1945.7911    1369.8718    575.91929     195.4758    177.26867    24132.558     0.671894 
  885000       885000    1311.8216     1968.532    1395.6093    572.92272    199.14845    -1865.927    24132.558     0.671894 
  886000       886000    1892.3665    1978.9846    1396.0992    582.88537    199.21836   -246.11001    24132.558     0.671894 
  887000       887000     1505.094    2010.0239     1415.567    594.45684    201.99634   -1434.6693    24132.558     0.671894 
  888000       888000    1628.0181    1943.1761    1364.6342    578.54189    194.72841   -895.46599    24132.558     0.671894 
  889000       889000    2382.8128    2034.6988    1445.2935    589.40534     206.2382    989.10458    24132.558     0.671894 
  890000       890000    2031.4846     1967.171    1400.9251     566.2459    199.90699     182.7358    24132.558     0.671894 
  891000       891000    2151.8288    1997.2781    1395.8725    601.40553    199.18601    439.12871    24132.558     0.671894 
  892000       892000    1911.7768    2011.4452     1436.619    574.82616    205.00038      -283.19    24132.558     0.671894 
  893000       893000    1806.7519    2015.0405    1431.5307    583.50983     204.2743   -591.81551    24132.558     0.671894 
  894000       894000    1775.2673    1950.0384    1398.5587    551.47978    199.56931   -496.58138    24132.558     0.671894 
  895000       895000    1629.4169    1956.3922    1404.2135     552.1787    200.37623   -929.04263    24132.558     0.671894 
  896000       896000     1714.877    1982.0665    1398.9638    583.10266    199.62713   -759.17206    24132.558     0.671894 
  897000       897000    1157.3165    1995.2297    1406.4368    588.79284     200.6935   -2380.7829    24132.558     0.671894 
  898000       898000    1911.0914     1937.034    1395.4728     541.5612    199.12897   -73.711293    24132.558     0.671894 
  899000       899000    1950.3126    1960.7619    1407.6055    553.15637    200.86027   -29.689972    24132.558     0.671894 
  900000       900000    1787.1589    2007.8091    1392.8719    614.93718    198.75783   -626.93879    24132.558     0.671894 
  901000       901000    2088.2173    1975.5991    1388.1209     587.4782    198.07988     319.9847    24132.558     0.671894 
  902000       902000    1891.6405    1931.6708    1376.2948    555.37604    196.39233   -113.73919    24132.558     0.671894 
  903000       903000    2073.8303     2013.344    1389.2709     624.0731    198.24398     171.8612    24132.558     0.671894 
  904000       904000    2364.4135    1987.4076    1359.4144    627.99312    193.98357     1071.196    24132.558     0.671894 
  905000       905000     1877.296    1979.1749     1408.236    570.93889    200.95023   -289.47101    24132.558     0.671894 
  906000       906000    1861.1557    2014.0766     1408.113    605.96363    200.93268   -434.49784    24132.558     0.671894 
  907000       907000    1768.0177    1954.8197    1374.7304    580.08929     196.1691   -530.76481    24132.558     0.671894 
  908000       908000    1565.3409    1929.8612    1350.1361    579.72511    192.65958   -1035.7202    24132.558     0.671894 
  909000       909000    1575.1464    2004.6974     1429.981    574.71637    204.05317   -1220.4936    24132.558     0.671894 
  910000       910000    1650.6414    1956.4572    1381.1917    575.26553    197.09111   -868.92171    24132.558     0.671894 
  911000       911000    1940.6299    2003.8553    1442.9648    560.89056     205.9059   -179.64396    24132.558     0.671894 
  912000       912000    1632.4669    1965.7453    1392.0326    573.71267    198.63807   -946.95184    24132.558     0.671894 
  913000       913000    1703.7871    2003.4057    1395.6636    607.74211     199.1562   -851.31369    24132.558     0.671894 
  914000       914000    1903.3495    1947.3226    1402.3858    544.93686    200.11542    -124.9418    24132.558     0.671894 
  915000       915000    1712.4439    1986.5815    1424.6427     561.9388    203.29141   -778.91372    24132.558     0.671894 
  916000       916000    1667.5025    1962.9634    1398.3631    564.60033    199.54141   -839.50015    24132.558     0.671894 
  917000       917000    1538.1635    2039.4297    1429.1803    610.24942     203.9389   -1424.2595    24132.558     0.671894 
  918000       918000     2498.598     2012.758    1420.3601    592.39789     202.6803    1380.4286    24132.558     0.671894 
  919000       919000     2850.658    2043.8447    1443.7145    600.13018    206.01289     2292.418    24132.558     0.671894 
  920000       920000    2155.2539    1996.3359    1427.8357    568.50025    203.74703    451.53745    24132.558     0.671894 
  921000       921000    1983.0323    2026.0743    1415.8882    610.18617    202.04217   -122.29638    24132.558     0.671894 
  922000       922000    1997.7287    1975.7064    1374.6178    601.08862    196.15304    62.572388    24132.558     0.671894 
  923000       923000    2032.5673    2004.7343    1402.3276    602.40675    200.10712    79.082382    24132.558     0.671894 
  924000       924000    1707.2254    1905.9105    1362.1082    543.80229    194.36796   -564.52869    24132.558     0.671894 
  925000       925000    1693.5571    1950.2683    1408.1473    542.12098    200.93757   -729.39958    24132.558     0.671894 
  926000       926000    1576.5575    1969.6702    1387.0146    582.65564    197.92201   -1116.9606    24132.558     0.671894 
  927000       927000    1946.4348     1977.854    1423.5037    554.35021    203.12888   -89.271899    24132.558     0.671894 
  928000       928000     2093.197    1943.5333    1375.7404    567.79288    196.31322    425.24302    24132.558     0.671894 
  929000       929000    1927.1833    1988.5078    1429.1068    559.40099    203.92842   -174.24274    24132.558     0.671894 
  930000       930000    1544.8188    1926.3675    1397.5785    528.78898    199.42945   -1084.1034    24132.558     0.671894 
  931000       931000    1748.5724    2025.3716    1409.5992    615.77243    201.14476   -786.47616    24132.558     0.671894 
  932000       932000    1369.5172    1970.8704    1384.4208    586.44967    197.55188   -1708.6392    24132.558     0.671894 
  933000       933000     1704.406    2037.4886    1435.3193    602.16935    204.81492    -946.3956    24132.558     0.671894 
  934000       934000    1814.6749    2018.0406     1423.871    594.16958     203.1813   -577.82795    24132.558     0.671894 
  935000       935000     1798.356    1969.3551    1388.6868    580.66824    198.16063   -485.86369    24132.558     0.671894 
  936000       936000    1593.3711    2013.0628      1413.79    599.27286    201.74276   -1192.4801    24132.558     0.671894 
  937000       937000    1578.8932    1949.5896    1378.8739    570.71566    196.76037   -1053.2685    24132.558     0.671894 
  938000       938000    1500.2376    1974.5932    1427.5374    547.05584    203.70447    -1347.798    24132.558     0.671894 
  939000       939000      1973.32    2000.1335    1422.2474    577.88616    202.94961   -76.186005    24132.558     0.671894 
  940000       940000    1577.4965    1928.2436    1371.2908    556.95287    195.67828   -996.58625    24132.558     0.671894 
  941000       941000    1309.7815    1976.6453    1396.0544    580.59093    199.21196   -1894.7761    24132.558     0.671894 
  942000       942000    2022.1119    2043.5899     1420.619    622.97086    202.71725   -61.025884    24132.558     0.671894 
  943000       943000    2043.3087     1985.988    1397.0677    588.92038    199.35655    162.86646    24132.558     0.671894 
  944000       944000    1944.4129     1982.146    1379.9747     602.1713    196.91745   -107.21221    24132.558     0.671894 
  945000       945000    1249.3842    1886.6042    1337.7319     548.8723    190.88955   -1810.5486    24132.558     0.671894 
  946000       946000     1630.779    1984.6102    1411.2128    573.39744    201.37501   -1005.3491    24132.558     0.671894 
  947000       947000    1802.5636     1966.397    1404.3656     562.0314    200.39794   -465.50378    24132.558     0.671894 
  948000       948000    1930.2807    2020.2098    1410.3441    609.86573    201.25104    -255.5176    24132.558     0.671894 
  949000       949000    2100.4426    1970.6594    1389.3569    581.30245    198.25625    368.75615    24132.558     0.671894 
  950000       950000    1743.2237    2065.4352    1445.4191    620.01617    206.25612   -915.50738    24132.558     0.671894 
  951000       951000    1851.9391     1961.228    1401.7702    559.45783    200.02758   -310.52505    24132.558     0.671894 
  952000       952000    1942.8777    2036.2426    1431.0098     605.2328    204.19997   -265.27984    24132.558     0.671894 
  953000       953000    2033.9489     1977.715    1396.0425    581.67248    199.21026    159.77889    24132.558     0.671894 
  954000       954000    1817.7797    1959.8638    1404.3405    555.52334    200.39435   -403.70711    24132.558     0.671894 
  955000       955000    1926.0674    1930.7038    1354.2706    576.43323    193.24956   -13.173743    24132.558     0.671894 
  956000       956000    1881.8769     2003.562    1387.7308    615.83115    198.02422   -345.74675    24132.558     0.671894 
  957000       957000    1635.7917    1944.1157    1381.2791    562.83659    197.10358    -876.0483    24132.558     0.671894 
  958000       958000    1743.7856    2014.4973     1459.502    554.99525    208.26571   -769.17964    24132.558     0.671894 
  959000       959000    1853.7372     1972.821    1408.5528    564.26816    200.99544   -338.35564    24132.558     0.671894 
  960000       960000    1868.1303    1959.7797    1398.7446    561.03514    199.59584   -260.40562    24132.558     0.671894 
  961000       961000    2305.0099    1996.6682    1402.8169    593.85124    200.17695    876.09863    24132.558     0.671894 
  962000       962000    1743.5985    1928.4913    1354.8316    573.65966    193.32962   -525.34037    24132.558     0.671894 
  963000       963000    2151.2455    2008.6816    1445.5634    563.11821    206.27672    405.07006    24132.558     0.671894 
  964000       964000    1549.6506    1985.3417    1409.2733    576.06839    201.09825   -1237.9394    24132.558     0.671894 
  965000       965000     1164.949    1898.5216    1361.7604    536.76119    194.31833   -2084.3173    24132.558     0.671894 
  966000       966000    2042.4747    2041.6573    1417.8849    623.77244    202.32709    2.3225041    24132.558     0.671894 
  967000       967000    2060.6204    1964.5904    1419.0185    545.57193    202.48885    272.85218    24132.558     0.671894 
  968000       968000    1943.5141    2038.0545    1460.0241    578.03046     208.3402   -268.61992    24132.558     0.671894 
  969000       969000     2147.264    2003.6729    1427.2892    576.38363    203.66906    407.98903    24132.558     0.671894 
  970000       970000     2115.363     1910.581    1365.5545    545.02651    194.85974    581.85184    24132.558     0.671894 
  971000       971000    2393.5177    1995.3194      1436.33    558.98942    204.95914    1131.4104    24132.558     0.671894 
  972000       972000    1813.4145    1906.9315     1358.965    547.96658    193.91943    -265.7122    24132.558     0.671894 
  973000       973000      1602.21      2000.06    1429.5463    570.51362    203.99114   -1130.4207    24132.558     0.671894 
  974000       974000     1638.011    1910.5825    1382.3202    528.26232    197.25214   -774.46401    24132.558     0.671894 
  975000       975000     1743.838    2005.8469    1423.6675    582.17935    203.15226    -744.4521    24132.558     0.671894 
  976000       976000    2155.5659    2016.0321    1413.5956     602.4365    201.71503    396.46059    24132.558     0.671894 
  977000       977000    2347.0867    2002.2766    1402.3349    599.94174    200.10817    979.71705    24132.558     0.671894 
  978000       978000    2094.3252    1993.8703    1388.0526    605.81772    198.07013    285.42479    24132.558     0.671894 
  979000       979000    1796.7902    2000.9214    1422.4132    578.50825    202.97326   -580.00287    24132.558     0.671894 
  980000       980000    1973.6923    2024.8067    1425.3527    599.45404    203.39272   -145.23266    24132.558     0.671894 
  981000       981000    1595.7203    1982.2921    1390.5298    591.76234    198.42362   -1098.3759    24132.558     0.671894 
  982000       982000    1584.8801     1978.417    1389.3577    589.05936    198.25636   -1118.1659    24132.558     0.671894 
  983000       983000    1496.5739    1949.9846    1404.2367    545.74791    200.37955   -1288.2868    24132.558     0.671894 
  984000       984000    1745.3779     2015.164    1402.8986    612.26547     200.1886   -766.54981    24132.558     0.671894 
  985000       985000    2333.4418    1975.1381    1416.2863    558.85176    202.09899    1018.0569    24132.558     0.671894 
  986000       986000    2389.4218    2033.0347    1431.3204    601.71433    204.24429    1012.6111    24132.558     0.671894 
  987000       987000    2230.9067    1998.3167    1406.3988    591.91787    200.68807    660.86354    24132.558     0.671894 
  988000       988000    1708.4059     1952.592    1387.7331    564.85894    198.02454   -693.81185    24132.558     0.671894 
  989000       989000    1525.1079    2024.5197    1422.8732    601.64656     203.0389   -1418.9907    24132.558     0.671894 
  990000       990000    2127.9148     1956.351    1408.4975    547.85349    200.98755    487.46832    24132.558     0.671894 
  991000       991000    1526.0307    1988.9793    1397.3726    591.60662    199.40007   -1315.3869    24132.558     0.671894 
  992000       992000    2380.0544    2030.3509    1427.7457    602.60519     203.7342    993.62092    24132.558     0.671894 
  993000       993000    1545.4294     1975.429    1420.1063    555.32279    202.64407   -1221.7684    24132.558     0.671894 
  994000       994000    1533.7713    1990.6175    1409.8811    580.73638    201.18498   -1298.0481    24132.558     0.671894 
  995000       995000    1567.3084    2021.9079    1407.0845    614.82344    200.78591   -1291.6645    24132.558     0.671894 
  996000       996000    1592.1316    1964.2243    1391.2185    573.00575     198.5219    -1057.236    24132.558     0.671894 
  997000       997000    1768.5888    1990.8089    1407.6201    583.18878    200.86235   -631.39938    24132.558     0.671894 
  998000       998000    2002.0865    1998.5322    1423.3302    575.20197    203.10413    10.098938    24132.558     0.671894 
  999000       999000    1595.7514    1938.3514    1396.7339    541.61749    199.30893   -973.43759    24132.558     0.671894 
 1000000      1000000    1564.5929    1982.8657    1406.1402    576.72553    200.65117   -1188.4487    24132.558     0.671894 
Loop time of 1546.56 on 24 procs for 1000000 steps with 2352 atoms

Performance: 55.866 ns/day, 0.430 hours/ns, 646.598 timesteps/s
93.0% CPU use with 24 MPI tasks x 1 OpenMP threads

MPI task timing breakdown:
Section |  min time  |  avg time  |  max time  |%varavg| %total
---------------------------------------------------------------
Pair    | 749.3      | 791.78     | 835.6      |  97.1 | 51.20
Bond    | 37.409     | 38.807     | 40.086     |  16.1 |  2.51
Kspace  | 209.06     | 258.53     | 315.34     | 178.9 | 16.72
Neigh   | 43.65      | 44.469     | 45.353     |   7.3 |  2.88
Comm    | 324.55     | 340.24     | 352.86     |  39.3 | 22.00
Output  | 0.042864   | 0.044635   | 0.075713   |   3.1 |  0.00
Modify  | 11.478     | 14.58      | 16.879     |  45.2 |  0.94
Other   |            | 58.11      |            |       |  3.76

Nlocal:    98 ave 108 max 82 min
Histogram: 2 0 1 0 2 4 7 2 3 3
Nghost:    5388.54 ave 5442 max 5321 min
Histogram: 2 0 1 1 5 5 3 3 2 2
Neighs:    54808.3 ave 60676 max 45374 min
Histogram: 2 0 1 0 4 2 1 10 3 1

Total # of neighbors = 1315399
Ave neighs/atom = 559.268
Ave special neighs/atom = 9.14286
Neighbor list builds = 26277
Dangerous builds = 0

#write_data butane_afterr_nvt1.data
Total wall time: 0:25:46
