LAMMPS (3 Mar 2020)
  using 1 OpenMP thread(s) per MPI task
units           real
atom_style      full
boundary        p p p


pair_style      lj/cut/coul/long 12.0
pair_modify     tail yes mix geometric
bond_style      harmonic
angle_style     harmonic
dihedral_style  opls

kspace_style    ewald 1.0e-5
#special_bonds   lj/coul 0.0 0.0 0.5

neighbor        2.0 bin
neigh_modify    every 1 delay 0 check yes

read_data       butane_after_npt.data
  orthogonal box = (2.96201 2.96201 2.96201) to (32.038 32.038 32.038)
  3 by 2 by 4 MPI processor grid
  reading atoms ...
  2352 atoms
  reading velocities ...
  2352 velocities
  scanning bonds ...
  1 = max bonds/atom
  scanning angles ...
  6 = max angles/atom
  scanning dihedrals ...
  11 = max dihedrals/atom
  reading bonds ...
  2184 bonds
  reading angles ...
  4032 angles
  reading dihedrals ...
  4536 dihedrals
  4 = max # of 1-2 neighbors
  6 = max # of 1-3 neighbors
  9 = max # of 1-4 neighbors
  13 = max # of special neighbors
  special bonds CPU = 0.000845714 secs
  read_data CPU = 0.0377386 secs

group           mobile union all
2352 atoms in group mobile

#minimize 1.0e-8 1.0e-10 400000 400000
#write_data buate_after_min.data

fix DEF all deform 1 x final 0.0 28.898 y final 0.0 28.898 z final 0.0 28.898 units box
run 1
Ewald initialization ...
  using 12-bit tables for long-range coulomb (src/kspace.cpp:332)
  G vector (1/distance) = 0.188339
  estimated absolute RMS force accuracy = 0.00435253
  estimated relative force accuracy = 1.31075e-05
  KSpace vectors: actual max1d max3d = 128 4 364
                  kxmax kymax kzmax  = 4 4 4
Neighbor list info ...
  update every 1 steps, delay 0 steps, check yes
  max neighbors/atom: 2000, page size: 100000
  master list distance cutoff = 14
  ghost atom cutoff = 14
  binsize = 7, bins = 5 5 5
  1 neighbor lists, perpetual/occasional/extra = 1 0 0
  (1) pair lj/cut/coul/long, perpetual
      attributes: half, newton on
      pair build: half/bin/newton
      stencil: half/bin/3d/newton
      bin: standard
Per MPI rank memory allocation (min/avg/max) = 19.26 | 19.27 | 19.28 Mbytes
Step Temp E_pair E_mol TotEng Press Volume 
       0    212.28063   -750.46881    1438.3983    2175.5676   -396.65655    24581.182 
       1    212.28063   -750.99221    1438.3983    2175.0442   -407.00432    24132.558 
WARNING: Bond/angle/dihedral extent > half of periodic box length (src/domain.cpp:906)
Loop time of 0.00191437 on 24 procs for 1 steps with 2352 atoms

Performance: 45.132 ns/day, 0.532 hours/ns, 522.366 timesteps/s
64.4% CPU use with 24 MPI tasks x 1 OpenMP threads

MPI task timing breakdown:
Section |  min time  |  avg time  |  max time  |%varavg| %total
---------------------------------------------------------------
Pair    | 0.00090551 | 0.0010371  | 0.001192   |   0.2 | 54.17
Bond    | 3.0737e-05 | 4.156e-05  | 5.6304e-05 |   0.0 |  2.17
Kspace  | 0.00011507 | 0.00027949 | 0.00042554 |   0.0 | 14.60
Neigh   | 0          | 0          | 0          |   0.0 |  0.00
Comm    | 0.0004033  | 0.00042567 | 0.00045137 |   0.0 | 22.24
Output  | 3.746e-05  | 5.4739e-05 | 7.3637e-05 |   0.0 |  2.86
Modify  | 4.048e-06  | 5.0763e-06 | 7.514e-06  |   0.0 |  0.27
Other   |            | 7.077e-05  |            |       |  3.70

Nlocal:    98 ave 111 max 85 min
Histogram: 1 2 2 4 4 2 3 4 1 1
Nghost:    5331.83 ave 5406 max 5242 min
Histogram: 1 3 2 2 3 1 3 3 4 2
Neighs:    53801.7 ave 61771 max 46772 min
Histogram: 2 1 6 1 4 1 3 4 1 1

Total # of neighbors = 1291241
Ave neighs/atom = 548.997
Ave special neighs/atom = 9.14286
Neighbor list builds = 0
Dangerous builds = 0
unfix DEF

thermo_style    custom step time enthalpy etotal ke pe temp press vol density
#thermo_modify   line multi
thermo          1000
thermo_modify   flush yes
timestep 1.0


## Equil NPT ##
#fix      NPT  all nvt temp 272 272 100 iso 1 1 1000
#restart 1000000 liqbut1.restart

#fix      NPT  all npt temp 160 160 50 iso 1 1 500
#dump myDump all atom 2000 butane_npt.lammpstrj

#run 5000000
#write_data ethanol_after_npt.data



fix 1 all nvt temp 215 215 100 # iso 1.0 1.0 1000.0
#dump            DUMPxyz all xyz 1 but1_clms_20ps.xyz
#dump            DUMP all custom 1000 mol.lammpstrj id type x y z fx fy fz mol

run 1000000
Ewald initialization ...
  using 12-bit tables for long-range coulomb (src/kspace.cpp:332)
  G vector (1/distance) = 0.188509
  estimated absolute RMS force accuracy = 0.00426774
  estimated relative force accuracy = 1.28522e-05
  KSpace vectors: actual max1d max3d = 128 4 364
                  kxmax kymax kzmax  = 4 4 4
Per MPI rank memory allocation (min/avg/max) = 19.26 | 19.27 | 19.28 Mbytes
Step Time Enthalpy TotEng KinEng PotEng Temp Press Volume Density 
       1            1    6189.3963    2192.8647    1487.6381    705.22654    212.28063    11355.441    24132.558     0.671894 
    1000         1000    2502.2978     2205.002    1525.4254    679.57661    217.67274    844.71359    24132.558     0.671894 
    2000         2000    2317.2843     2176.232    1484.9329    691.29909     211.8946    400.77553    24132.558     0.671894 
    3000         3000     2368.329    2237.0895    1522.6519    714.43764    217.27697    372.89371    24132.558     0.671894 
    4000         4000         2523    2151.8896    1490.0901    661.79954    212.63052    1054.4447    24132.558     0.671894 
    5000         5000    2269.4537    2192.9434     1508.091    684.85238    215.19918    217.39074    24132.558     0.671894 
    6000         6000    2521.2089    2159.0205    1500.1363    658.88419    214.06407    1029.0948    24132.558     0.671894 
    7000         7000    2154.9802    2139.2193    1463.6547    675.56458    208.85829    44.781825    24132.558     0.671894 
    8000         8000    1986.3566    2127.4757    1472.5626     654.9131     210.1294   -400.96514    24132.558     0.671894 
    9000         9000    2369.5543    2169.9039    1501.4808    668.42314    214.25593    567.27154    24132.558     0.671894 
   10000        10000    1781.6502     2178.471    1499.1773    679.29372    213.92723   -1127.4964    24132.558     0.671894 
   11000        11000    2087.4654    2231.2114    1515.0905    716.12091    216.19799   -408.42888    24132.558     0.671894 
   12000        12000    1883.9333    2151.7333    1496.8048     654.9285    213.58868   -760.90653    24132.558     0.671894 
   13000        13000    2713.8691    2219.2969    1563.1082    656.18867    223.04994    1405.2397    24132.558     0.671894 
   14000        14000    1697.8111    2208.1064    1507.6789    700.42753    215.14038   -1449.9145    24132.558     0.671894 
   15000        15000    1819.4353    2090.9551    1450.8863    640.06875    207.03628    -771.4755    24132.558     0.671894 
   16000        16000    2330.4997    2175.9231    1498.6521    677.27102    213.85229    439.20224    24132.558     0.671894 
   17000        17000    2914.3009     2220.493    1520.1074    700.38563    216.91388    1971.3329    24132.558     0.671894 
   18000        18000    2477.2885    2190.8928    1520.7685    670.12427    217.00822    813.74295    24132.558     0.671894 
   19000        19000    2444.9602    2158.4023    1518.9898    639.41251     216.7544    814.20384    24132.558     0.671894 
   20000        20000    1890.1912    2217.1036    1531.6601     685.4435    218.56241    -928.8641    24132.558     0.671894 
   21000        21000    2192.5255    2223.4816    1516.3029    707.17864    216.37099   -87.956244    24132.558     0.671894 
   22000        22000    2132.5573    2158.0981    1488.3831    669.71505    212.38693   -72.569618    24132.558     0.671894 
   23000        23000    2502.2814    2178.1832    1528.2273     649.9559    218.07257    920.86778    24132.558     0.671894 
   24000        24000    2748.8371    2186.0123    1505.9988    680.01347    214.90063    1599.1677    24132.558     0.671894 
   25000        25000    2375.9237    2229.7996     1517.532    712.26759    216.54638    415.18598    24132.558     0.671894 
   26000        26000    1827.6887    2129.8676    1451.5274    678.34012    207.12776    -858.5879    24132.558     0.671894 
   27000        27000    1831.9666    2229.3581    1555.8979    673.46014    222.02106   -1129.1178    24132.558     0.671894 
   28000        28000    1771.0902     2203.737    1510.3405    693.39656    215.52017   -1229.2899    24132.558     0.671894 
   29000        29000    1920.1408    2129.6264    1471.4216    658.20482    209.96659   -595.21668    24132.558     0.671894 
   30000        30000    2338.8397    2206.1324    1504.7174    701.41502    214.71778    377.06444    24132.558     0.671894 
   31000        31000    2341.2435    2247.0517    1501.4884    745.56337    214.25701    267.62931    24132.558     0.671894 
   32000        32000    2284.2702    2151.3163    1502.7905     648.5258    214.44282    377.76517    24132.558     0.671894 
   33000        33000    2370.5814    2211.7145    1514.9977    696.71675    216.18475    451.39241    24132.558     0.671894 
   34000        34000    2445.6605    2140.8468    1514.1433     626.7035    216.06282    866.07457    24132.558     0.671894 
   35000        35000    2522.0599    2190.8984    1543.3284    647.57003    220.22743    940.93717    24132.558     0.671894 
   36000        36000    2536.2304    2243.9755    1593.3414    650.63407    227.36412    830.39089    24132.558     0.671894 
   37000        37000    1769.3257    2202.3282    1494.3526    707.97559    213.23876   -1230.3002    24132.558     0.671894 
   38000        38000    2009.2495     2219.033    1488.7952    730.23781    212.44573   -596.06274    24132.558     0.671894 
   39000        39000     2880.848     2237.613    1507.7373    729.87577    215.14871    1827.6389    24132.558     0.671894 
   40000        40000    2327.3436    2209.8656    1532.3202    677.54538    218.65661    333.79301    24132.558     0.671894 
   41000        41000    1794.7906     2185.578    1508.2395    677.33846    215.22037   -1110.3534    24132.558     0.671894 
   42000        42000    2793.4652      2233.36    1541.5718    691.78816    219.97677    1591.4404    24132.558     0.671894 
   43000        43000    1913.9064    2217.6946    1524.4661    693.22853    217.53585   -863.16081    24132.558     0.671894 
   44000        44000    2600.4987    2216.5989    1518.3009    698.29803     216.6561    1090.7836    24132.558     0.671894 
   45000        45000    2124.9579    2155.9784     1510.755    645.22332    215.57933   -88.139116    24132.558     0.671894 
   46000        46000    2072.1213    2160.0286    1483.3101    676.71843    211.66304   -249.77295    24132.558     0.671894 
   47000        47000    2156.8204    2219.8277    1497.9096    721.91811    213.74633   -179.02402    24132.558     0.671894 
   48000        48000    1470.9117    2177.4361    1504.7597    672.67635    214.72382   -2007.4645    24132.558     0.671894 
   49000        49000    1679.0271    2270.4241    1546.5855    723.83863    220.69221   -1680.3506    24132.558     0.671894 
   50000        50000    2142.8345    2182.0575     1512.701    669.35647    215.85702   -111.44516    24132.558     0.671894 
   51000        51000    2139.7224    2187.3449    1521.5203    665.82459    217.11549   -135.31083    24132.558     0.671894 
   52000        52000    1909.9574    2124.4234     1461.051    663.37238    208.48674   -609.36736    24132.558     0.671894 
   53000        53000    1901.7911    2199.7635    1488.8071    710.95637    212.44745   -846.63626    24132.558     0.671894 
   54000        54000    2259.3183    2184.8108    1506.7924     678.0184    215.01388    211.70012    24132.558     0.671894 
   55000        55000    1556.7382    2133.4394    1469.8581    663.58123    209.74349   -1638.5947    24132.558     0.671894 
   56000        56000    2400.2979    2233.6444    1507.3121    726.33235    215.08803    473.51649    24132.558     0.671894 
   57000        57000    1909.5875    2161.6644    1502.3997    659.26477    214.38705   -716.23223    24132.558     0.671894 
   58000        58000     1686.293    2176.4602    1511.1776    665.28261    215.63963   -1392.7237    24132.558     0.671894 
   59000        59000    2157.2986    2272.5989    1507.6157    764.98314    215.13136   -327.60549    24132.558     0.671894 
   60000        60000    2021.0058    2218.8882    1538.8197    680.06848    219.58405   -562.24791    24132.558     0.671894 
   61000        61000    2572.5748    2141.0341     1521.373    619.66105    217.09448     1226.147    24132.558     0.671894 
   62000        62000    2805.8811    2166.1975    1505.7633    660.43415    214.86703    1817.5483    24132.558     0.671894 
   63000        63000    2012.7277    2176.3799    1472.1707    704.20915    210.07349   -464.98866    24132.558     0.671894 
   64000        64000    1985.0701    2227.6537    1515.6955    711.95823    216.28432   -689.25858    24132.558     0.671894 
   65000        65000    1664.1017     2168.469    1488.2563    680.21266    212.36885   -1433.0708    24132.558     0.671894 
   66000        66000    2104.5561    2206.2334    1528.5785     677.6549    218.12267    -288.8981    24132.558     0.671894 
   67000        67000    2222.0047    2275.5889    1552.2135    723.37541     221.4953   -152.24991    24132.558     0.671894 
   68000        68000    2205.0474    2169.9947    1465.4348    704.55988     209.1123    99.595905    24132.558     0.671894 
   69000        69000    2331.6656    2200.8191    1506.1243    694.69477    214.91854    371.77745    24132.558     0.671894 
   70000        70000    2272.1893    2205.9436    1528.8511    677.09249    218.16157    188.22563    24132.558     0.671894 
   71000        71000    2222.0377    2148.4748    1477.2706    671.20424    210.80122    209.01593    24132.558     0.671894 
   72000        72000    1857.6376    2245.3256    1513.2222    732.10345    215.93138   -1101.5473    24132.558     0.671894 
   73000        73000    1700.0509     2140.511    1491.7734    648.73757    212.87073   -1251.4899    24132.558     0.671894 
   74000        74000    2484.6352    2208.5392    1505.7995    702.73971     214.8722    784.47799    24132.558     0.671894 
   75000        75000    1868.8134    2141.4196    1446.8052    694.61436    206.45392   -774.56239    24132.558     0.671894 
   76000        76000     2075.145    2163.6907    1517.3521    646.33861     216.5207   -251.58684    24132.558     0.671894 
   77000        77000    1358.4602    2217.7987     1547.266    670.53264    220.78932    -2441.659    24132.558     0.671894 
   78000        78000    1452.1541    2230.9239    1529.5589    701.36499    218.26258   -2212.7374    24132.558     0.671894 
   79000        79000    1844.1553    2141.1172    1480.0709    661.04632    211.20082   -843.76506    24132.558     0.671894 
   80000        80000     1671.484     2221.583    1511.0005    710.58248    215.61436   -1563.0093    24132.558     0.671894 
   81000        81000    1947.2466    2148.8373    1438.7355    710.10177     205.3024   -572.78441    24132.558     0.671894 
   82000        82000    1946.3372    2199.7319    1536.8063    662.92558    219.29676   -719.97645    24132.558     0.671894 
   83000        83000    2486.6585    2189.3979     1493.149    696.24889    213.06701    844.61365    24132.558     0.671894 
   84000        84000    2106.3911    2190.8849    1501.8207    689.06421    214.30443   -240.07409    24132.558     0.671894 
   85000        85000    2272.2257    2206.0137    1494.5396    711.47419    213.26544    188.12968    24132.558     0.671894 
   86000        86000    2173.6551    2211.1887    1550.1404    661.04826    221.19948   -106.64505    24132.558     0.671894 
   87000        87000    2295.2111    2163.4533    1512.7894     650.6639    215.86962    374.36666    24132.558     0.671894 
   88000        88000    2207.7687    2211.6695    1526.4734    685.19606    217.82229   -11.083485    24132.558     0.671894 
   89000        89000    2946.1047    2239.9958    1531.1577    708.83815    218.49072    2006.2841    24132.558     0.671894 
   90000        90000     2105.839     2170.668    1485.6148    685.05322    211.99191   -184.20003    24132.558     0.671894 
   91000        91000     1775.723    2094.9014    1463.5126    631.38884      208.838   -906.88905    24132.558     0.671894 
   92000        92000     1999.012    2205.5623    1516.9311    688.63124    216.46063   -586.87635    24132.558     0.671894 
   93000        93000    1655.5934    2141.4086    1510.0469    631.36174    215.47828   -1380.3584    24132.558     0.671894 
   94000        94000    1885.2511    2209.5953    1508.0996    701.49564    215.20042   -921.56681    24132.558     0.671894 
   95000        95000    2011.6719     2189.315    1527.2323    662.08273    217.93057   -504.74161    24132.558     0.671894 
   96000        96000    2087.4687    2191.0955    1523.1541    667.94141    217.34863   -294.43744    24132.558     0.671894 
   97000        97000    1994.1666      2123.29    1507.3875    615.90253    215.09879   -366.88145    24132.558     0.671894 
   98000        98000    1946.4882    2199.5587    1541.5843     657.9744    219.97856   -719.05517    24132.558     0.671894 
   99000        99000    1831.9099     2162.482    1488.4649    674.01711     212.3986   -939.26247    24132.558     0.671894 
  100000       100000    2371.4877    2180.2511    1484.6718    695.57926    211.85735    543.36511    24132.558     0.671894 
  101000       101000    1827.2775    2174.5401    1515.9022    658.63795    216.31381   -986.68555    24132.558     0.671894 
  102000       102000    2047.1616    2167.3879     1489.933     677.4549     212.6081     -341.602    24132.558     0.671894 
  103000       103000    1885.2451    2266.8384    1567.6676    699.17077    223.70055   -1084.2302    24132.558     0.671894 
  104000       104000    1991.3716    2175.6865    1489.9377    685.74879    212.60877   -523.69825    24132.558     0.671894 
  105000       105000     2638.747    2136.2901    1473.3137    662.97634    210.23659    1427.6428    24132.558     0.671894 
  106000       106000    2569.9341    2211.9398    1520.3652    691.57458    216.95067    1017.1776    24132.558     0.671894 
  107000       107000    1919.4644    2133.0617    1486.8418    646.21994    212.16699    -606.8991    24132.558     0.671894 
  108000       108000    1714.8092     2152.023    1481.6517    670.37125    211.42639   -1242.2661    24132.558     0.671894 
  109000       109000    1861.7572    2215.9293    1508.3861     707.5432    215.24129   -1006.3175    24132.558     0.671894 
  110000       110000    2402.4011    2159.1574    1521.2362    637.92126    217.07495    691.13417    24132.558     0.671894 
  111000       111000    2836.2012    2262.8318    1527.5932    735.23857    217.98208    1629.1281    24132.558     0.671894 
  112000       112000     2404.761    2194.1962    1488.0676    706.12855    212.34192    598.28286    24132.558     0.671894 
  113000       113000    1967.3143    2183.4871    1490.4172    693.06992    212.67719   -614.21698    24132.558     0.671894 
  114000       114000    2379.9829    2220.3424    1527.7906    692.55174    218.01025    453.59047    24132.558     0.671894 
  115000       115000    2360.6711    2115.4826    1469.0913     646.3913    209.63407     696.6599    24132.558     0.671894 
  116000       116000     2039.777    2185.9566    1510.4771    675.47945    215.53967   -415.34346    24132.558     0.671894 
  117000       117000    2402.2026     2199.544      1497.56    701.98407    213.69644    575.81861    24132.558     0.671894 
  118000       118000    1634.5253    2129.7464    1491.9731     637.7733    212.89922   -1407.0835    24132.558     0.671894 
  119000       119000    1777.1764    2178.8448    1460.8396    718.00515    208.45658   -1141.2701    24132.558     0.671894 
  120000       120000    2494.6671    2222.2573    1559.1496    663.10776    222.48506    774.00453    24132.558     0.671894 
  121000       121000    2387.5876    2147.6506    1495.5627    652.08789    213.41144    681.73876    24132.558     0.671894 
  122000       122000     2844.078    2123.5126    1444.6074    678.90515     206.1403    2047.3597    24132.558     0.671894 
  123000       123000    2374.6357    2181.7992    1526.5461    655.25316    217.83266    547.91083    24132.558     0.671894 
  124000       124000    1997.5641    2234.1619    1532.7943    701.36762    218.72426   -672.25095    24132.558     0.671894 
  125000       125000    1601.7273    2188.0581    1495.7162    692.34196    213.43334   -1665.9557    24132.558     0.671894 
  126000       126000    2326.9416    2128.0833    1469.0678     659.0155    209.63072    565.02069    24132.558     0.671894 
  127000       127000    2145.9788    2206.6554    1517.2261    689.42932    216.50272   -172.40188    24132.558     0.671894 
  128000       128000     2244.115    2182.2466    1492.1021    690.14446    212.91763    175.78802    24132.558     0.671894 
  129000       129000    1966.9165    2154.5558    1481.4748    673.08105    211.40114   -533.14415    24132.558     0.671894 
  130000       130000    2014.3497    2214.0877    1498.6833    715.40432    213.85674   -567.52036    24132.558     0.671894 
  131000       131000    2324.4784    2202.4839    1489.8901    712.59379    212.60198    346.62597    24132.558     0.671894 
  132000       132000    2257.8957     2148.948    1484.9245    664.02345    211.89341    309.55587    24132.558     0.671894 
  133000       133000    2237.0888    2152.2235    1487.2494    664.97417    212.22515    241.12989    24132.558     0.671894 
  134000       134000    3001.6924     2262.826    1592.8374    669.98861    227.29219    2099.3587    24132.558     0.671894 
  135000       135000    2247.7493    2213.7438    1516.9247    696.81909    216.45972    96.620575    24132.558     0.671894 
  136000       136000    2051.8541    2178.5045    1466.0345    712.46998    209.19787   -359.85481    24132.558     0.671894 
  137000       137000    2006.0545    2197.9482     1562.122    635.82624    222.90921   -545.23232    24132.558     0.671894 
  138000       138000    1816.6333    2171.5716    1522.8662    648.70539    217.30756   -1008.4948    24132.558     0.671894 
  139000       139000    1890.3915    2176.9583    1500.8581    676.10024    214.16707   -814.22931    24132.558     0.671894 
  140000       140000     2392.574    2263.5821    1547.3833    716.19887    220.80605    366.50769    24132.558     0.671894 
  141000       141000    2211.2073    2174.2227    1522.8397    651.38297    217.30377    105.08518    24132.558     0.671894 
  142000       142000    2094.5359    2291.9028    1533.9167    757.98607    218.88442   -560.78329    24132.558     0.671894 
  143000       143000     2632.345    2182.0826    1501.8486    680.23394    214.30842    1279.3414    24132.558     0.671894 
  144000       144000    2331.5891    2282.3825    1550.0632    732.31936    221.18846    139.81179    24132.558     0.671894 
  145000       145000    2291.8083    2158.2901    1495.6209    662.66919    213.41975    379.36849    24132.558     0.671894 
  146000       146000     2292.243    2244.1206    1532.2798    711.84076    218.65084    136.73144    24132.558     0.671894 
  147000       147000    1878.3027    2233.4304    1502.0757    731.35476    214.34082   -1009.0329    24132.558     0.671894 
  148000       148000    2537.9604    2218.5163    1509.6585    708.85786    215.42286    907.64398    24132.558     0.671894 
  149000       149000    2152.3066    2182.4928    1506.9128    675.57998    215.03106   -85.768727    24132.558     0.671894 
  150000       150000    2320.1645     2196.261    1513.2464    683.01453    215.93485    352.05014    24132.558     0.671894 
  151000       151000    2274.6213    2214.3247    1516.8016    697.52312    216.44216    171.32191    24132.558     0.671894 
  152000       152000    2052.6047    2185.5801    1498.9528    686.62728     213.8952    -377.8262    24132.558     0.671894 
  153000       153000    1998.8377    2225.1564    1503.3624    721.79392    214.52443    -643.0446    24132.558     0.671894 
  154000       154000    1614.1978    2138.2455    1477.1531    661.09246    210.78445   -1488.9893    24132.558     0.671894 
  155000       155000    2460.4529    2212.5406    1516.1282    696.41239    216.34607     704.3989    24132.558     0.671894 
  156000       156000    1870.8801    2154.3164    1507.1327    647.18366    215.06244   -805.33429    24132.558     0.671894 
  157000       157000    2080.4923    2203.0153     1501.716    701.29933    214.28949   -348.12753    24132.558     0.671894 
  158000       158000    2508.9421    2250.3695     1545.803     704.5666    220.58054    734.68835    24132.558     0.671894 
  159000       159000    2595.7182    2170.5734    1500.1725    670.40091    214.06923    1207.9741    24132.558     0.671894 
  160000       160000    1980.6613    2216.5102    1529.7461    686.76404    218.28929   -670.12301    24132.558     0.671894 
  161000       161000    2305.4949    2185.2875    1506.4528    678.83469    214.96542    341.54819    24132.558     0.671894 
  162000       162000    2516.6203    2150.6701    1524.3284    626.34174    217.51619    1039.7831    24132.558     0.671894 
  163000       163000    2039.3129    2195.2884    1512.0577    683.23074    215.76522   -443.17692    24132.558     0.671894 
  164000       164000    1564.7685    2144.0126    1509.9639    634.04871    215.46644   -1645.8201    24132.558     0.671894 
  165000       165000    2646.5528    2260.3074    1533.5797    726.72774    218.83632    1097.4484    24132.558     0.671894 
  166000       166000     2445.413    2206.9928    1511.1556    695.83723    215.63649    677.42897    24132.558     0.671894 
  167000       167000    2596.1845    2217.4716    1541.3883    676.08329    219.95059     1076.046    24132.558     0.671894 
  168000       168000    2429.7985    2105.2888    1457.4687    647.82005    207.97557    922.03714    24132.558     0.671894 
  169000       169000    2270.0324    2212.0499    1510.9155     701.1344    215.60223    164.74707    24132.558     0.671894 
  170000       170000    2142.5936     2136.357    1474.0449    662.31212    210.34093    17.719992    24132.558     0.671894 
  171000       171000    2502.7195    2169.2798    1512.5352    656.74462    215.83335    947.41005    24132.558     0.671894 
  172000       172000    2064.3773    2223.4904    1508.5882    714.90218    215.27013   -452.09183    24132.558     0.671894 
  173000       173000    1518.0076    2119.0452    1480.4603    638.58485    211.25639   -1707.7424    24132.558     0.671894 
  174000       174000     1942.075    2163.8057    1489.4945    674.31126    212.54553     -630.009    24132.558     0.671894 
  175000       175000    2500.8953    2234.9848    1545.4162    689.56855    220.52536    755.53791    24132.558     0.671894 
  176000       176000    2119.9795    2175.4438    1503.8735    671.57034    214.59736   -157.59224    24132.558     0.671894 
  177000       177000     2591.807    2209.5857     1551.725    657.86069     221.4256    1086.0146    24132.558     0.671894 
  178000       178000    2015.7494    2205.3234    1524.2324    681.09095     217.5025   -538.64098    24132.558     0.671894 
  179000       179000    2507.9803    2131.7588    1470.7083    661.05054     209.8648    1068.9671    24132.558     0.671894 
  180000       180000    2589.2128    2214.3493    1535.5979    678.75145    219.12431    1065.1087    24132.558     0.671894 
  181000       181000    2343.3446    2235.1625     1558.892    676.27047     222.4483    307.38053    24132.558     0.671894 
  182000       182000    1486.0033    2193.3107    1516.0796    677.23114    216.33912   -2009.6894    24132.558     0.671894 
  183000       183000    2056.9105    2243.8478    1523.3995    720.44822    217.38366   -531.14922    24132.558     0.671894 
  184000       184000    2574.4971     2245.171    1523.9931    721.17791    217.46835    935.72208    24132.558     0.671894 
  185000       185000    1816.7538    2169.3853    1492.1676    677.21775    212.92697   -1001.9404    24132.558     0.671894 
  186000       186000    2573.9379    2138.8403    1480.0803    658.75998    211.20215    1236.2534    24132.558     0.671894 
  187000       187000    2632.5167    2173.2806    1504.0502    669.23043    214.62257    1304.8386    24132.558     0.671894 
  188000       188000    2592.5654    2182.9955    1520.7496    662.24594    217.00552    1163.7207    24132.558     0.671894 
  189000       189000    2087.0083    2155.3035    1479.7513    675.55218    211.15521   -194.04869    24132.558     0.671894 
  190000       190000    2035.8968     2212.333     1525.138    687.19493    217.63173   -501.31235    24132.558     0.671894 
  191000       191000     2107.089    2181.1017    1497.8206    683.28108    213.73364   -210.29399    24132.558     0.671894 
  192000       192000    1729.4333    2120.0289    1471.7751     648.2538    210.01704   -1109.8086    24132.558     0.671894 
  193000       193000    2026.0463    2196.3959    1530.5499    665.84597    218.40399   -484.01835    24132.558     0.671894 
  194000       194000    2354.5325    2214.6136    1513.1038    701.50975    215.91449    397.55508    24132.558     0.671894 
  195000       195000    2691.4938     2190.383    1529.7687    660.61431    218.29251    1423.8181    24132.558     0.671894 
  196000       196000    2090.0813     2224.803    1533.3058    691.49716    218.79725   -382.78788    24132.558     0.671894 
  197000       197000    2281.6948    2217.1217    1542.3141    674.80763    220.08269    183.47325    24132.558     0.671894 
  198000       198000    2213.9669    2232.6999    1535.1945    697.50544    219.06675   -53.226371    24132.558     0.671894 
  199000       199000    2448.8057    2173.4176    1484.2268    689.19081    211.79385    782.46691    24132.558     0.671894 
  200000       200000    2120.9693    2236.4734    1507.3428    729.13058    215.09241   -328.18454    24132.558     0.671894 
  201000       201000    2832.6791    2258.7558     1583.075     675.6808    225.89912    1630.7021    24132.558     0.671894 
  202000       202000    2535.4382     2196.097    1501.6916     694.4054    214.28601    964.17824    24132.558     0.671894 
  203000       203000    2184.7705    2144.0734    1488.2669    655.80656    212.37035    115.63369    24132.558     0.671894 
  204000       204000    2025.5228     2217.929    1539.3766    678.55241    219.66353   -546.68853    24132.558     0.671894 
  205000       205000    2439.8009    2231.8986    1551.4236    680.47504    221.38259    590.71762    24132.558     0.671894 
  206000       206000     2188.168    2188.8603    1518.0348    670.82547    216.61812   -1.9669551    24132.558     0.671894 
  207000       207000    2239.6529    2196.1183    1501.1348     694.9835    214.20656    123.69578    24132.558     0.671894 
  208000       208000    1707.4569    2185.6924    1511.1268    674.56562    215.63238   -1358.8219    24132.558     0.671894 
  209000       209000      2355.59    2168.7932    1481.3024    687.49074    211.37655    530.75024    24132.558     0.671894 
  210000       210000    2704.4835    2172.7766    1494.7183    678.05831    213.29095    1510.7515    24132.558     0.671894 
  211000       211000    2419.3279    2184.1557    1504.7698    679.38586    214.72526    668.20055    24132.558     0.671894 
  212000       212000     2095.199    2278.8311    1523.7644    755.06674    217.43571   -521.75829    24132.558     0.671894 
  213000       213000    2336.1833    2175.5228    1494.1666    681.35615    213.21223    456.48855    24132.558     0.671894 
  214000       214000    1855.4655    2176.3033    1529.8916    646.41172    218.31005   -911.60422    24132.558     0.671894 
  215000       215000    2066.1737     2214.948    1520.9541    693.99386    217.03471   -422.71602    24132.558     0.671894 
  216000       216000    2355.1313    2141.1068    1506.2107    634.89607    214.93087    608.11297    24132.558     0.671894 
  217000       217000    2871.0735    2274.2311    1526.3771    747.85395    217.80854    1695.8227    24132.558     0.671894 
  218000       218000    2708.1189    2169.3001    1498.7301    670.57008    213.86341    1530.9586    24132.558     0.671894 
  219000       219000    2104.8439    2218.2165    1520.0291    698.18744    216.90271   -322.12852    24132.558     0.671894 
  220000       220000     2188.951    2242.7167    1530.8173    711.89937    218.44214   -152.76581    24132.558     0.671894 
  221000       221000    2572.0513    2161.9222     1502.828    659.09423    214.44817    1165.3097    24132.558     0.671894 
  222000       222000    2465.2636    2179.9119    1498.7916     681.1203    213.87219    810.77669    24132.558     0.671894 
  223000       223000    2278.8057    2178.4471    1492.2995     686.1476    212.94579    285.15126    24132.558     0.671894 
  224000       224000    2226.9668     2142.377    1481.2162    661.16083    211.36425    240.34695    24132.558     0.671894 
  225000       225000    2252.3614    2212.5159    1545.4104    667.10548    220.52453    113.21389    24132.558     0.671894 
  226000       226000    2697.4557    2189.7161    1495.4421    694.27399    213.39424    1442.6527    24132.558     0.671894 
  227000       227000    3038.9612    2230.9819    1541.7518    689.23001    220.00246    2295.7312    24132.558     0.671894 
  228000       228000     2516.747     2164.774    1527.3992    637.37475     217.9544    1000.0694    24132.558     0.671894 
  229000       229000    2284.0583    2192.7978    1492.4239    700.37382    212.96355    259.30072    24132.558     0.671894 
  230000       230000    2114.6991    2177.6587    1489.1414    688.51736    212.49514    -178.8887    24132.558     0.671894 
  231000       231000    2411.0171    2200.2978    1540.9196    659.37816    219.88371     598.7217    24132.558     0.671894 
  232000       232000    2422.7675    2165.7865    1472.5363    693.25028    210.12565    730.16603    24132.558     0.671894 
  233000       233000    2331.1084    2157.6833    1508.6413      649.042    215.27771    492.75673    24132.558     0.671894 
  234000       234000    1637.6338     2131.708    1477.4379    654.27019    210.82509   -1403.8249    24132.558     0.671894 
  235000       235000    2297.1577    2168.1067    1490.3584    677.74834     212.6688    366.67559    24132.558     0.671894 
  236000       236000    2108.9807    2218.5264    1518.3014      700.225    216.65617   -311.25468    24132.558     0.671894 
  237000       237000    2131.7758    2160.1312    1497.9268    662.20442    213.74879   -80.567002    24132.558     0.671894 
  238000       238000    1891.9571    2127.8781    1498.9267    628.95141    213.89146   -670.32778    24132.558     0.671894 
  239000       239000    2452.1851    2228.5992    1504.1864    724.41287    214.64201    635.27995    24132.558     0.671894 
  240000       240000    2841.4656    2175.8567     1523.568    652.28868     217.4077    1891.2106    24132.558     0.671894 
  241000       241000    2490.0547     2173.807    1513.5591     660.2479    215.97947    898.56214    24132.558     0.671894 
  242000       242000    2224.9863     2191.202     1522.291    668.91102    217.22547    95.992051    24132.558     0.671894 
  243000       243000     2346.348    2170.7842    1526.5677    644.21647    217.83575     498.8336    24132.558     0.671894 
  244000       244000    2223.0835     2148.864    1488.4405    660.42357    212.39512    210.88155    24132.558     0.671894 
  245000       245000    2175.7127    2195.5832    1504.0004     691.5828    214.61547    -56.45848    24132.558     0.671894 
  246000       246000    2221.2087    2201.9795    1526.4493    675.53018    217.81885    54.636379    24132.558     0.671894 
  247000       247000    2389.1815    2185.4196     1519.418     666.0016    216.81551    578.95337    24132.558     0.671894 
  248000       248000    2609.3802    2189.2155    1482.9801    706.23542    211.61595     1193.824    24132.558     0.671894 
  249000       249000    2359.2353    2214.1933    1521.9445    692.24882    217.17602    412.11136    24132.558     0.671894 
  250000       250000    1847.2484    2170.6472      1466.04    704.60725    209.19866   -918.88097    24132.558     0.671894 
  251000       251000    1891.1637    2198.3525    1527.6425    670.70999    217.98911   -872.82288    24132.558     0.671894 
  252000       252000    2374.6506    2230.3517    1508.1576    722.19414    215.20868    409.99975    24132.558     0.671894 
  253000       253000    1837.4553     2216.632    1540.6843    675.94766    219.85013   -1077.3639    24132.558     0.671894 
  254000       254000    2237.0215    2130.4297    1478.4249    652.00484    210.96593    302.86171    24132.558     0.671894 
  255000       255000    2523.5897    2154.9461    1482.7859    672.16018    211.58824    1047.4357    24132.558     0.671894 
  256000       256000    1989.8971    2238.1156    1505.9766      732.139    214.89746   -705.26917    24132.558     0.671894 
  257000       257000    2042.0777    2202.6845    1515.2628    687.42165    216.22258   -456.33576    24132.558     0.671894 
  258000       258000    2369.3097    2174.5877    1505.9456    668.64217    214.89304    553.26828    24132.558     0.671894 
  259000       259000    2173.9474    2185.3649     1530.387    654.97786    218.38074   -32.440682    24132.558     0.671894 
  260000       260000    2275.2842    2142.3898    1491.7623    650.62741    212.86914    377.59617    24132.558     0.671894 
  261000       261000    2781.4971    2215.7471    1505.4726    710.27447    214.82555     1607.479    24132.558     0.671894 
  262000       262000    2646.3927    2254.9387    1554.2256    700.71314    221.78242    1112.2475    24132.558     0.671894 
  263000       263000    2383.3055    2190.2678    1488.3264    701.94142    212.37884    548.48257    24132.558     0.671894 
  264000       264000    2485.2967    2242.1504    1519.3062    722.84421    216.79954    690.85758    24132.558     0.671894 
  265000       265000    1972.8721    2181.3175    1503.6321    677.68539    214.56291   -592.26099    24132.558     0.671894 
  266000       266000    2169.6958    2203.0026    1503.0677     699.9349    214.48238   -94.635299    24132.558     0.671894 
  267000       267000    2606.4805    2154.3258    1489.7891    664.53666    212.58757     1284.718    24132.558     0.671894 
  268000       268000    2413.6716    2259.5566    1535.2052    724.35141    219.06828    437.89058    24132.558     0.671894 
  269000       269000    2135.1832    2163.3696    1510.2926    653.07702    215.51335   -80.086902    24132.558     0.671894 
  270000       270000    2136.0227    2259.1796    1531.7092    727.47038    218.56942   -349.92855    24132.558     0.671894 
  271000       271000    1709.8012     2195.202    1510.8923    684.30975    215.59892   -1379.1811    24132.558     0.671894 
  272000       272000    1738.7094    2146.2988     1464.549    681.74983     208.9859   -1158.0938    24132.558     0.671894 
  273000       273000    2028.4366    2218.0475    1525.6638    692.38379    217.70675   -538.74626    24132.558     0.671894 
  274000       274000    1862.2387     2220.642    1519.4832    701.15883    216.82481   -1018.3401    24132.558     0.671894 
  275000       275000    2393.2378    2143.7671    1487.5515    656.21562    212.26827    708.82706    24132.558     0.671894 
  276000       276000    2412.8362    2212.6592    1526.5883    686.07096    217.83868    568.76756    24132.558     0.671894 
  277000       277000    2883.6015    2232.2681      1522.45    709.81811    217.24816    1850.6493    24132.558     0.671894 
  278000       278000    2258.1236    2151.6152    1495.6838    655.93145    213.42871    302.62481    24132.558     0.671894 
  279000       279000     2017.277    2188.4082    1492.5445    695.86368    212.98076    -486.2391    24132.558     0.671894 
  280000       280000    2227.9505    2220.4734    1513.8608    706.61265    216.02251    21.244728    24132.558     0.671894 
  281000       281000    1926.4103    2191.0588    1504.0545    687.00426    214.62319     -751.952    24132.558     0.671894 
  282000       282000    2457.7532    2183.8536     1493.595    690.25861    213.13066    778.23759    24132.558     0.671894 
  283000       283000    2417.4655      2237.93    1517.3413    720.58868    216.51917     510.1185    24132.558     0.671894 
  284000       284000    2077.2967    2190.7908    1491.6615    699.12924    212.85476   -322.47346    24132.558     0.671894 
  285000       285000    2386.4665    2210.9799    1545.1221     665.8578    220.48339    498.61416    24132.558     0.671894 
  286000       286000    1959.5586    2147.5668    1490.7092     656.8576    212.71886   -534.19228    24132.558     0.671894 
  287000       287000    1505.7102     2148.102    1493.2264    654.87557    213.07806   -1825.2431    24132.558     0.671894 
  288000       288000    1611.0007    2177.4746    1494.0257    683.44883    213.19212   -1609.5358    24132.558     0.671894 
  289000       289000     2285.644     2179.686    1503.3229    676.36319    214.51879      301.061    24132.558     0.671894 
  290000       290000    1848.8743    2166.6359    1515.2162    651.41965    216.21593   -902.86351    24132.558     0.671894 
  291000       291000     2227.355    2133.5471    1431.2965    702.25068    204.24088    266.53846    24132.558     0.671894 
  292000       292000    2050.4947    2163.6078    1523.0872    640.52061    217.33909   -321.39097    24132.558     0.671894 
  293000       293000    2238.2173    2214.9342    1512.1476    702.78657    215.77805    66.154937    24132.558     0.671894 
  294000       294000     1931.324    2251.1023    1546.5559    704.54643    220.68798   -908.59385    24132.558     0.671894 
  295000       295000    1921.0933    2173.1267    1529.1771    643.94957     218.2081   -716.10847    24132.558     0.671894 
  296000       296000    1873.3689    2252.5397    1533.6128    718.92691    218.84105   -1077.3469    24132.558     0.671894 
  297000       297000     1970.633    2241.8877    1538.5773    703.31043    219.54947   -770.72268    24132.558     0.671894 
  298000       298000    2189.7945    2172.5058    1522.4402    650.06557    217.24677    49.122881    24132.558     0.671894 
  299000       299000    2099.6044    2199.0342    1495.2787    703.75548    213.37091   -282.51209    24132.558     0.671894 
  300000       300000    2393.9402    2194.3253    1517.7746    676.55066      216.581    567.17047    24132.558     0.671894 
  301000       301000    2166.7606    2135.0375    1530.0893    604.94819    218.33826    90.135798    24132.558     0.671894 
  302000       302000    2115.5446    2245.6105    1524.7384    720.87207    217.57471    -369.5594    24132.558     0.671894 
  303000       303000    2396.7455    2165.4032    1499.2192    666.18397    213.93321    657.31865    24132.558     0.671894 
  304000       304000    2253.7488    2194.4191    1510.8874    683.53171    215.59822    168.57484    24132.558     0.671894 
  305000       305000    2589.1419    2160.8605     1471.669    689.19152    210.00189    1216.8862    24132.558     0.671894 
  306000       306000    2364.8712    2132.9466    1447.4771    685.46951     206.5498    658.97275    24132.558     0.671894 
  307000       307000    1744.6286    2189.7855    1504.9757    684.80979    214.75465   -1264.8352    24132.558     0.671894 
  308000       308000    2373.3033    2206.1203     1533.261    672.85925    218.79085    475.02108    24132.558     0.671894 
  309000       309000    1712.6737    2148.7975     1457.146     691.6515    207.92951   -1239.1688    24132.558     0.671894 
  310000       310000    2129.3171    2214.7097    1530.2699    684.43987    218.36403   -242.62818    24132.558     0.671894 
  311000       311000    2217.3084    2202.3132     1500.413    701.90021    214.10355    42.606341    24132.558     0.671894 
  312000       312000    2162.0899    2192.1519    1519.4252    672.72674    216.81653   -85.415912    24132.558     0.671894 
  313000       313000    2504.1281    2240.0885    1507.3315    732.75698    215.09081    750.22204    24132.558     0.671894 
  314000       314000    2333.3149    2142.9263    1469.2098     673.7165    209.65097    540.95586    24132.558     0.671894 
  315000       315000    1799.3553    2181.0946    1486.1221    694.97249     212.0643   -1084.6449    24132.558     0.671894 
  316000       316000    2230.4902    2156.4918    1498.7817    657.71003    213.87079    210.25355    24132.558     0.671894 
  317000       317000    2423.0843    2163.5048    1482.3051    681.19974    211.51962    737.54928    24132.558     0.671894 
  318000       318000    2559.3836    2158.7879    1485.9977    672.79012    212.04655    1138.2222    24132.558     0.671894 
  319000       319000    2354.1593    2161.8808    1513.7012     648.1796    215.99973    546.32564    24132.558     0.671894 
  320000       320000    1972.8401    2197.7337    1485.7494    711.98431    212.01112   -638.99556    24132.558     0.671894 
  321000       321000    2447.1312    2123.4991    1446.4195    677.07963    206.39888    919.54352    24132.558     0.671894 
  322000       322000    2248.4489    2163.8213    1492.5625    671.25884    212.98332    240.45442    24132.558     0.671894 
  323000       323000    2229.0738    2251.1947    1557.8324    693.36229     222.2971   -62.852492    24132.558     0.671894 
  324000       324000    2732.9517    2174.3582    1501.3865    672.97172    214.24247    1587.1452    24132.558     0.671894 
  325000       325000    2032.1101    2139.9826    1490.5871    649.39545    212.70144   -306.50049    24132.558     0.671894 
  326000       326000    2289.9369    2191.4282    1519.7816    671.64662    216.86739    279.89488    24132.558     0.671894 
  327000       327000    2385.4003    2196.9703    1486.8767    710.09359    212.17198    535.39069    24132.558     0.671894 
  328000       328000    2062.3257    2152.9169    1481.0053    671.91154    211.33415   -257.39886    24132.558     0.671894 
  329000       329000     1809.531    2219.0661    1529.1788    689.88726    218.20834   -1163.6218    24132.558     0.671894 
  330000       330000    2750.3871    2208.6304    1535.5581    673.07233    219.11863    1539.3064    24132.558     0.671894 
  331000       331000    2661.7706    2183.5073    1534.0224    649.48493     218.8995    1358.9008    24132.558     0.671894 
  332000       332000    2263.4703    2182.0043    1497.6299    684.37436    213.70642    231.47133    24132.558     0.671894 
  333000       333000    2311.3461    2124.2607    1469.9917    654.26898    209.76256    531.57027    24132.558     0.671894 
  334000       334000    2507.1006    2183.3451    1489.0345    694.31051    212.47989    919.89438    24132.558     0.671894 
  335000       335000    1444.1986    2188.9082    1515.0092    673.89892    216.18639   -2115.9611    24132.558     0.671894 
  336000       336000    1956.5081    2172.7038    1504.9732    667.73058    214.75428    -614.2819    24132.558     0.671894 
  337000       337000    2245.9395    2092.4804      1449.72    642.76034    206.86986    436.02702    24132.558     0.671894 
  338000       338000    2259.2517    2193.3093    1530.6844    662.62498    218.42318    187.36354    24132.558     0.671894 
  339000       339000    2596.2759    2254.2781    1545.4226    708.85547    220.52627    971.72652    24132.558     0.671894 
  340000       340000    2637.2027    2184.1552    1512.3843    671.77088    215.81182    1287.2546    24132.558     0.671894 
  341000       341000    1756.3475    2176.1948    1522.8871    653.30767    217.31054   -1192.9224    24132.558     0.671894 
  342000       342000    2219.2749    2238.5809    1506.0842    732.49677    214.91281   -54.854599    24132.558     0.671894 
  343000       343000    1758.7602    2173.9963    1525.1555    648.84079    217.63423   -1179.8205    24132.558     0.671894 
  344000       344000    2089.8946    2213.6294    1517.9825    695.64686    216.61067   -351.57075    24132.558     0.671894 
  345000       345000    2538.6889    2169.4002    1516.0511    653.34911    216.33506     1049.269    24132.558     0.671894 
  346000       346000    2532.6634     2162.209    1529.6594    632.54961    218.27692    1052.5809    24132.558     0.671894 
  347000       347000    2453.4808    2186.4282    1506.3327    680.09551    214.94828     758.7828    24132.558     0.671894 
  348000       348000    1904.7578     2248.418    1519.4929    728.92509    216.82619    -976.4499    24132.558     0.671894 
  349000       349000    2440.2187    2180.5479    1511.7073    668.84061    215.71521    737.80894    24132.558     0.671894 
  350000       350000    1751.5991    2158.7641    1444.2055    714.55862    206.08295   -1156.8877    24132.558     0.671894 
  351000       351000    2729.4544    2263.7741    1535.5022    728.27189    219.11066    1323.1487    24132.558     0.671894 
  352000       352000    1657.6455    2150.2062    1465.5703    684.63585    209.13164   -1399.5246    24132.558     0.671894 
  353000       353000    2185.2677    2193.7307    1503.3982    690.33241    214.52954   -24.046092    24132.558     0.671894 
  354000       354000    1834.8351    2130.9885    1492.3147    638.67379    212.94796   -841.46759    24132.558     0.671894 
  355000       355000     1478.444    2166.1457    1493.7746    672.37104    213.15629   -1953.9834    24132.558     0.671894 
  356000       356000    2100.2068    2190.7289    1514.5409    676.18809    216.11955   -257.20285    24132.558     0.671894 
  357000       357000    2022.0462    2128.0415    1488.2359    639.80564    212.36592   -301.16696    24132.558     0.671894 
  358000       358000     2008.427    2166.4532    1471.5108    694.94237    209.97932   -449.00353    24132.558     0.671894 
  359000       359000    2364.6089    2189.1316    1495.1588    693.97278     213.3538    498.58803    24132.558     0.671894 
  360000       360000    2357.2045    2151.1685    1462.7762    688.39232    208.73292    585.41492    24132.558     0.671894 
  361000       361000    2255.1618     2192.449    1504.3903    688.05867     214.6711    178.18745    24132.558     0.671894 
  362000       362000    2633.1544    2156.5441    1479.1093    677.43473     211.0636    1354.2045    24132.558     0.671894 
  363000       363000    2745.9445    2215.4151    1539.7031    675.71193    219.71012    1507.4059    24132.558     0.671894 
  364000       364000    2307.0373     2165.149    1509.8419    655.30711    215.44903    403.15052    24132.558     0.671894 
  365000       365000    2279.2917    2152.4809    1488.6626    663.81834    212.42682     360.3104    24132.558     0.671894 
  366000       366000    2353.3412    2209.5866    1492.8229    716.76376    213.02048    408.45313    24132.558     0.671894 
  367000       367000    2034.9657    2156.0549     1490.407    665.64786    212.67574   -344.05366    24132.558     0.671894 
  368000       368000    1707.6642    2185.4253     1503.013    682.41232    214.47457    -1357.474    24132.558     0.671894 
  369000       369000    1856.7942    2182.4073    1501.1688    681.23855    214.21141   -925.17237    24132.558     0.671894 
  370000       370000    2507.4195    2223.7724    1545.8886    677.88377    220.59277    805.93321    24132.558     0.671894 
  371000       371000    2001.0887    2212.3463    1548.5751    663.77117    220.97612   -600.25117    24132.558     0.671894 
  372000       372000    2080.4386    2166.2356     1473.555    692.68059    210.27102   -243.77689    24132.558     0.671894 
  373000       373000    2570.5795    2216.4358    1516.6754    699.76039    216.42415    1006.2369    24132.558     0.671894 
  374000       374000    2098.0883    2143.2055    1480.7893    662.41614    211.30333   -128.19246    24132.558     0.671894 
  375000       375000      2157.67    2207.9693    1551.5939    656.37548    221.40688   -142.91676    24132.558     0.671894 
  376000       376000     2199.425    2184.7682    1523.3905    661.37773    217.38236    41.644886    24132.558     0.671894 
  377000       377000    2139.0724    2154.4336    1478.1772    676.25644    210.93058   -43.646173    24132.558     0.671894 
  378000       378000    2172.1291    2202.5128    1497.8998    704.61296    213.74494   -86.329741    24132.558     0.671894 
  379000       379000    2168.1746    2263.2945    1562.3694    700.92504    222.94452   -270.26646    24132.558     0.671894 
  380000       380000    1970.2995    2177.4253    1513.5055    663.91978    215.97182   -588.51162    24132.558     0.671894 
  381000       381000    2693.0355    2210.3964    1532.1217    678.27471    218.62828    1371.3338    24132.558     0.671894 
  382000       382000    2492.7322    2177.0765    1519.7757    657.30077    216.86655    896.88005    24132.558     0.671894 
  383000       383000    2114.6822    2222.9313    1528.6479    694.28334    218.13259   -307.57059    24132.558     0.671894 
  384000       384000    2237.0362    2114.6953    1439.7385    674.95675    205.44553    347.61034    24132.558     0.671894 
  385000       385000    2182.5414    2223.2622    1520.6205    702.64169     216.9871   -115.70106    24132.558     0.671894 
  386000       386000    1920.9781    2183.8432    1498.5555    685.28773     213.8385   -746.88492    24132.558     0.671894 
  387000       387000    2261.1363    2123.5887    1455.2853    668.30341    207.66399    390.81731    24132.558     0.671894 
  388000       388000    1730.0243    2160.5203     1492.587    667.93332    212.98682   -1223.1788    24132.558     0.671894 
  389000       389000    2528.2509    2245.1955    1526.3971    718.79848    217.81139    804.25205    24132.558     0.671894 
  390000       390000    1882.8234    2153.5591     1482.685    670.87407    211.57384   -769.24776    24132.558     0.671894 
  391000       391000    2046.4813    2193.3001    1512.4138    680.88629    215.81603   -417.15975    24132.558     0.671894 
  392000       392000    2050.0837    2145.1749    1498.9594     646.2155    213.89614   -270.18496    24132.558     0.671894 
  393000       393000    1855.6975    2256.3987    1546.1767    710.22204    220.63387    -1138.522    24132.558     0.671894 
  394000       394000     2370.563    2199.8184    1513.1267    686.69166    215.91776    485.14067    24132.558     0.671894 
  395000       395000    2432.8858    2159.9476    1482.3535    677.59416    211.52653    775.50581    24132.558     0.671894 
  396000       396000    2368.5639    2263.9571    1582.4762    681.48082    225.81369    297.22189    24132.558     0.671894 
  397000       397000    2763.5887    2180.4392    1542.7473    637.69188    220.14451    1656.9166    24132.558     0.671894 
  398000       398000    2253.6944    2216.9606    1547.0895    669.87109    220.76413    104.37268    24132.558     0.671894 
  399000       399000    1927.8433     2163.017    1512.1188    650.89817    215.77394   -668.20461    24132.558     0.671894 
  400000       400000    2236.5563    2183.9323      1534.12    649.81232    218.91343    149.52189    24132.558     0.671894 
  401000       401000    2096.0875    2213.0661    1533.2645    679.80158    218.79135   -332.37406    24132.558     0.671894 
  402000       402000    2161.6796    2127.3825    1496.4904    630.89213    213.54382    97.448964    24132.558     0.671894 
  403000       403000    2099.3892    2169.1964    1483.5116    685.68489    211.69178   -198.34502    24132.558     0.671894 
  404000       404000    1750.8514    2178.6231    1490.2331    688.39003    212.65092    -1215.438    24132.558     0.671894 
  405000       405000    2314.2173    2114.2886     1451.814    662.47462    207.16866    568.06206    24132.558     0.671894 
  406000       406000    2780.9297     2165.768    1520.5636    645.20435    216.97898    1747.8738    24132.558     0.671894 
  407000       407000     2392.381    2191.1225    1558.1123    633.01018    222.33705    571.84046    24132.558     0.671894 
  408000       408000    2651.9149    2290.5131    1562.4167     728.0964    222.95126    1026.8597    24132.558     0.671894 
  409000       409000    2408.4523    2215.9423    1513.1423    702.79999    215.91998    546.98342    24132.558     0.671894 
  410000       410000    1890.4306    2150.8931    1466.3861    684.50697    209.24804   -740.05829    24132.558     0.671894 
  411000       411000    2252.0589    2138.0063    1478.2885    659.71786    210.94647    324.06021    24132.558     0.671894 
  412000       412000    2215.9672    2153.2284    1474.1305    679.09787    210.35315    178.26109    24132.558     0.671894 
  413000       413000    2040.3811    2195.6061    1506.6054    689.00072    214.98719    -441.0447    24132.558     0.671894 
  414000       414000    2750.5976    2136.4929    1476.6023    659.89053    210.70586    1744.8706    24132.558     0.671894 
  415000       415000    2229.4324    2199.2015    1539.8693    659.33216    219.73384     85.89578    24132.558     0.671894 
  416000       416000    1820.3039    2216.7138    1499.2933    717.42058    213.94378    -1126.329    24132.558     0.671894 
  417000       417000    2061.8772     2167.662    1498.5799    669.08216    213.84198   -300.56906    24132.558     0.671894 
  418000       418000    2581.1298    2188.6841    1494.4022     694.2819    213.24584    1115.0654    24132.558     0.671894 
  419000       419000    2873.6365    2137.0581    1480.1514    656.90667     211.2123    2092.8578    24132.558     0.671894 
  420000       420000    1965.0995    2192.9447    1517.8101    675.13468    216.58606   -647.38212    24132.558     0.671894 
  421000       421000    2492.6821    2243.2859    1544.8313    698.45466    220.44189    708.61529    24132.558     0.671894 
  422000       422000    2322.1758    2217.6097    1538.7093    678.90048     219.5683    297.10601    24132.558     0.671894 
  423000       423000    1852.9561    2172.2834    1542.7128    629.57069    220.13958   -907.31232    24132.558     0.671894 
  424000       424000    2343.3914    2181.3732    1490.9639    690.40932    212.75521    460.34618    24132.558     0.671894 
  425000       425000    2129.8564    2198.3295     1498.899    699.43046    213.88752   -194.55414    24132.558     0.671894 
  426000       426000    1950.7831    2119.9331    1465.0272    654.90593    209.05413    -480.6098    24132.558     0.671894 
  427000       427000    1880.2144    2165.2178    1519.0244    646.19343    216.75934   -809.78702    24132.558     0.671894 
  428000       428000     2155.132     2191.246    1529.5517    661.69432    218.26154   -102.61166    24132.558     0.671894 
  429000       429000    2189.5638    2162.3587    1485.2593    677.09935    211.94118    77.298571    24132.558     0.671894 
  430000       430000     2489.675    2112.8197    1492.6225    620.19725    212.99188     1070.768    24132.558     0.671894 
  431000       431000    1748.5543    2200.9688    1503.9773    696.99153    214.61217   -1285.4562    24132.558     0.671894 
  432000       432000    1875.4081    2138.2902    1505.1936    633.09656    214.78574   -746.93317    24132.558     0.671894 
  433000       433000    1901.1592    2104.9288    1502.8372     602.0916    214.44949   -578.97542    24132.558     0.671894 
  434000       434000    2871.3856    2234.5951    1519.7052    714.88988    216.85649     1809.328    24132.558     0.671894 
  435000       435000      2004.79    2172.2727    1499.2133     673.0594    213.93236   -475.87242    24132.558     0.671894 
  436000       436000    2195.6186    2220.6448    1538.6093    682.03553    219.55404   -71.107646    24132.558     0.671894 
  437000       437000    2125.4971    2220.1306    1528.0614    692.06926    218.04889   -268.88464    24132.558     0.671894 
  438000       438000    1752.8725    2168.5277     1503.157    665.37067    214.49512    -1181.011    24132.558     0.671894 
  439000       439000     2205.967     2231.743    1506.8431    724.89988    215.02112   -73.238077    24132.558     0.671894 
  440000       440000    2039.1697     2226.709    1524.4415     702.2675    217.53234   -532.86004    24132.558     0.671894 
  441000       441000    2170.3461    2189.6829    1472.5369    717.14607    210.12574   -54.942308    24132.558     0.671894 
  442000       442000    2406.7348    2121.2992    1481.4429    639.85639    211.39659    811.01497    24132.558     0.671894 
  443000       443000    2438.1927    2186.6815    1525.1537    661.52779    217.63397    714.62478    24132.558     0.671894 
  444000       444000    2656.0422    2176.8298    1493.2746    683.55519    213.08493    1361.5978    24132.558     0.671894 
  445000       445000    2177.4104    2204.6343    1512.6601    691.97421    215.85118   -77.351823    24132.558     0.671894 
  446000       446000    1830.0033     2160.602    1478.1241    682.47799    210.92301   -939.33823    24132.558     0.671894 
  447000       447000    2319.9685    2176.3738    1501.7219    674.65192    214.29034     407.9989    24132.558     0.671894 
  448000       448000     2236.036    2300.8388    1579.4113    721.42758    225.37633   -184.12592    24132.558     0.671894 
  449000       449000    2449.1129    2175.4643    1477.4427    698.02157    210.82578     777.5244    24132.558     0.671894 
  450000       450000    1807.2853    2186.0068    1492.9745     693.0323    213.04212   -1076.0706    24132.558     0.671894 
  451000       451000    2344.2807    2247.2922    1518.0926    729.19955    216.62638    275.57575    24132.558     0.671894 
  452000       452000    2346.7075    2206.0527    1532.0152    674.03747    218.61309    399.64579    24132.558     0.671894 
  453000       453000    2407.9859    2197.7555    1519.6612    678.09424    216.85022    597.33281    24132.558     0.671894 
  454000       454000    1766.5865    2175.4396    1506.0472    669.39236    214.90754    -1161.684    24132.558     0.671894 
  455000       455000    2008.2233    2211.7011    1531.9278    679.77327    218.60061   -578.14627    24132.558     0.671894 
  456000       456000    1675.1696    2163.7594    1495.5595    668.19986    213.41098   -1388.2416    24132.558     0.671894 
  457000       457000    1872.9699     2229.158    1516.4838    712.67427     216.3968   -1012.0459    24132.558     0.671894 
  458000       458000    2253.5014    2192.5589    1513.0825    679.47645    215.91145    173.15732    24132.558     0.671894 
  459000       459000    2072.5081    2190.6269    1450.2274    740.39946    206.94226   -335.61368    24132.558     0.671894 
  460000       460000    2284.9387    2160.2465    1491.5033    668.74321    212.83217    354.29098    24132.558     0.671894 
  461000       461000    2199.6148    2163.3826     1476.559    686.82356    210.69968    102.94755    24132.558     0.671894 
  462000       462000    1737.5101    2141.3637    1481.5533    659.81039    211.41235   -1147.4789    24132.558     0.671894 
  463000       463000    2289.2949    2178.6202    1504.3624    674.25781    214.66712    314.46281    24132.558     0.671894 
  464000       464000    2861.1859    2247.2161    1530.5045    716.71164    218.39751    1744.4871    24132.558     0.671894 
  465000       465000    2128.8716    2182.9847    1480.5674    702.41735    211.27166   -153.75301    24132.558     0.671894 
  466000       466000    2265.9532    2192.4615     1498.532    693.92943    213.83515    208.81387    24132.558     0.671894 
  467000       467000    2615.9927    2189.5161    1531.5669    657.94921    218.54911    1211.7581    24132.558     0.671894 
  468000       468000    2403.3346    2138.2819     1491.765    646.51687    212.86952    753.10067    24132.558     0.671894 
  469000       469000    2050.2781    2192.6756    1499.0379     693.6377    213.90734   -404.59732    24132.558     0.671894 
  470000       470000    2039.4338    2176.0509    1490.9046    685.14636    212.74674   -388.17354    24132.558     0.671894 
  471000       471000    2385.0061    2147.7356    1517.9441    629.79149    216.60519    674.16244    24132.558     0.671894 
  472000       472000    2216.5971    2162.7754    1510.1232    652.65219    215.48917    152.92483    24132.558     0.671894 
  473000       473000    2323.6746    2146.1313    1466.5936    679.53773    209.27765    504.45794    24132.558     0.671894 
  474000       474000    2169.5145    2197.3718    1493.4647    703.90714    213.11206   -79.151764    24132.558     0.671894 
  475000       475000    2271.9514    2216.7815    1497.7882    718.99331      213.729    156.75565    24132.558     0.671894 
  476000       476000    2236.1179    2168.6736     1488.873    679.80067    212.45684    191.63099    24132.558     0.671894 
  477000       477000    2256.1361    2216.7288    1557.6671    659.06171    222.27351    111.96894    24132.558     0.671894 
  478000       478000    2505.1786    2168.8544    1506.5188    662.33558    214.97484      955.606    24132.558     0.671894 
  479000       479000    1780.3426    2200.2475    1539.7691     660.4784    219.71953   -1193.0858    24132.558     0.671894 
  480000       480000    1900.7227      2192.19    1474.0818    718.10823    210.34618   -828.15306    24132.558     0.671894 
  481000       481000    2723.9675    2188.8246    1486.1207    702.70389     212.0641    1520.5145    24132.558     0.671894 
  482000       482000    2818.0653    2244.3486    1523.2583    721.09033     217.3635     1630.115    24132.558     0.671894 
  483000       483000    2607.4059    2166.8192    1471.9695    694.84968    210.04478    1251.8496    24132.558     0.671894 
  484000       484000    1942.4253    2186.1574    1505.8653    680.29207    214.88159    -692.5218    24132.558     0.671894 
  485000       485000     1687.124    2207.1091    1530.0934    677.01567    218.33885    -1477.446    24132.558     0.671894 
  486000       486000    1692.4714    2127.7907     1505.428    622.36267    214.81918    -1236.883    24132.558     0.671894 
  487000       487000    2376.1873    2215.7901    1512.6067    703.18333    215.84356    455.74051    24132.558     0.671894 
  488000       488000    1755.6824    2249.4084    1510.9237    738.48463     215.6034   -1402.8355    24132.558     0.671894 
  489000       489000    2406.5168    2165.1879    1508.3054    656.88258    215.22977    685.69338    24132.558     0.671894 
  490000       490000     2137.878    2223.1262    1546.1217    677.00451    220.62602   -242.21772    24132.558     0.671894 
  491000       491000    2100.1788    2091.2311    1459.2391      631.992     208.2282    25.423334    24132.558     0.671894 
  492000       492000    2099.8294    2193.1425    1511.1222    682.02031    215.63173   -265.13285    24132.558     0.671894 
  493000       493000    2106.7102    2168.9022    1497.6117    671.29048    213.70382   -176.70735    24132.558     0.671894 
  494000       494000    1992.7591     2114.561    1476.9172     637.6437     210.7508   -346.07863    24132.558     0.671894 
  495000       495000    2390.2907    2181.8609    1483.7492    698.11176    211.72569    592.21644    24132.558     0.671894 
  496000       496000    2073.1112    2227.5851    1543.9573    683.62775    220.31718   -438.91036    24132.558     0.671894 
  497000       497000    2206.3221    2168.7222    1513.1969    655.52535    215.92777     106.8334    24132.558     0.671894 
  498000       498000    1941.6612    2135.5569    1465.3494    670.20745    209.10011   -550.92047    24132.558     0.671894 
  499000       499000    2368.2362    2204.5637    1487.1961    717.36764    212.21756    465.04636    24132.558     0.671894 
  500000       500000     2811.904    2124.8468      1439.17    685.67682     205.3644    1952.1521    24132.558     0.671894 
  501000       501000    3105.5203    2196.0863    1526.5887     669.4976    217.83874    2583.9965    24132.558     0.671894 
  502000       502000    2658.9416    2189.4059    1514.4291    674.97681    216.10361    1334.1032    24132.558     0.671894 
  503000       503000    2537.9253    2184.2798     1528.999    655.28075    218.18268    1004.8215    24132.558     0.671894 
  504000       504000    1983.6066    2275.1601    1579.2479    695.91224    225.35301   -828.39803    24132.558     0.671894 
  505000       505000    1571.0256     2174.094    1547.4284    626.66563    220.81249   -1713.5127    24132.558     0.671894 
  506000       506000    2152.8702    2206.6687    1532.9379    673.73075    218.74475   -152.85894    24132.558     0.671894 
  507000       507000    2210.8746    2214.3769    1540.9995    673.37741     219.8951   -9.9509607    24132.558     0.671894 
  508000       508000    2436.7533    2154.0893    1476.8763    677.21295    210.74496    803.13994    24132.558     0.671894 
  509000       509000    2098.9075     2205.905      1517.51    688.39494    216.54324   -304.01444    24132.558     0.671894 
  510000       510000    2245.4478    2124.2674    1488.6038    635.66361    212.41843    344.31251    24132.558     0.671894 
  511000       511000    1516.3146    2186.9232    1473.3131    713.61011     210.2365   -1905.4161    24132.558     0.671894 
  512000       512000    2242.0285    2163.8941    1525.7994    638.09472    217.72611    222.00508    24132.558     0.671894 
  513000       513000    1602.6874    2171.7642    1530.1791    641.58508    218.35108   -1616.9315    24132.558     0.671894 
  514000       514000    1732.9884      2222.89    1527.0517     695.8383    217.90481   -1391.9692    24132.558     0.671894 
  515000       515000    2202.7331     2233.629    1521.9424     711.6866    217.17573   -87.785195    24132.558     0.671894 
  516000       516000    2509.7376    2195.1682    1509.8363    685.33193    215.44823    893.79358    24132.558     0.671894 
  517000       517000    2578.7548    2270.4399    1551.0827    719.35721    221.33395    876.02247    24132.558     0.671894 
  518000       518000    2489.5922    2167.9523    1487.3953    680.55702    212.24598    913.88294    24132.558     0.671894 
  519000       519000    1938.3313    2238.3605    1507.3417    731.01888    215.09225   -852.48024    24132.558     0.671894 
  520000       520000    2125.7312    2152.6467    1506.7127    645.93402     215.0025     -76.4757    24132.558     0.671894 
  521000       521000    2019.6774    2146.4657    1511.8297    634.63602    215.73268   -360.24668    24132.558     0.671894 
  522000       522000    2685.8544    2202.7125    1536.7537    665.95877    219.28925    1372.7625    24132.558     0.671894 
  523000       523000     2808.601    2212.4616    1499.7554    712.70619    214.00972    1693.8252    24132.558     0.671894 
  524000       524000    2546.2305    2147.5435    1500.3226    647.22091    214.09066    1132.7989    24132.558     0.671894 
  525000       525000    2235.6064    2189.2883    1510.0182    679.27004    215.47419    131.60487    24132.558     0.671894 
  526000       526000    2159.0472    2170.2067    1473.1185    697.08823    210.20873   -31.707637    24132.558     0.671894 
  527000       527000    2060.2238     2147.254    1496.2941     650.9599     213.5158     -247.281    24132.558     0.671894 
  528000       528000    2599.7456    2206.6637    1515.6779    690.98582     216.2818     1116.873    24132.558     0.671894 
  529000       529000    2172.8179    2228.6583     1542.902    685.75631    220.16658   -158.66058    24132.558     0.671894 
  530000       530000    2091.0222    2176.4666    1499.9901    676.47645    214.04322   -242.77509    24132.558     0.671894 
  531000       531000    1739.7758    2214.2725    1529.0406    685.23196    218.18861   -1348.1989    24132.558     0.671894 
  532000       532000    1890.6368    2211.9306    1520.3275    691.60316    216.94528   -912.89978    24132.558     0.671894 
  533000       533000    2231.7909    2193.5353    1488.5832    704.95205    212.41549    108.69668    24132.558     0.671894 
  534000       534000    2035.7576    2181.5503    1544.0405    637.50981    220.32905   -414.24427    24132.558     0.671894 
  535000       535000    2430.8065    2257.9495    1546.7945    711.15507    220.72203    491.14262    24132.558     0.671894 
  536000       536000     2096.046    2175.4005    1453.5999    721.80055     207.4235   -225.47195    24132.558     0.671894 
  537000       537000    2127.0298    2158.5109    1489.0766    669.43436    212.48589   -89.448141    24132.558     0.671894 
  538000       538000    2879.6437     2179.154    1515.8434    663.31063    216.30542     1990.318    24132.558     0.671894 
  539000       539000     2322.304    2215.4077    1529.1119    686.29581    218.19878    303.72708    24132.558     0.671894 
  540000       540000    2094.9245    2243.8232    1538.4681    705.35513    219.53389   -423.06944    24132.558     0.671894 
  541000       541000    1965.7885    2166.3859    1463.6175    702.76835    208.85298   -569.96209    24132.558     0.671894 
  542000       542000    2105.2389    2202.5861    1515.2207    687.36541    216.21656   -276.59489    24132.558     0.671894 
  543000       543000    2008.2034    2161.7368    1505.9909    655.74585    214.89951   -436.23817    24132.558     0.671894 
  544000       544000    2160.0862    2202.2406    1498.3991     703.8415    213.81618   -119.77416    24132.558     0.671894 
  545000       545000    1862.2453    2144.6622    1501.2432    643.41906    214.22202   -802.43797    24132.558     0.671894 
  546000       546000    2301.1061    2286.9292    1567.3557    719.57347    223.65605    40.281008    24132.558     0.671894 
  547000       547000    2119.8653    2215.7935    1556.3761    659.41745    222.08929   -272.56301    24132.558     0.671894 
  548000       548000    1966.0124    2138.8218    1491.2565    647.56533    212.79695   -491.00741    24132.558     0.671894 
  549000       549000    2446.0134    2207.9074    1529.4053    678.50204    218.24066    676.53646    24132.558     0.671894 
  550000       550000    1702.7247    2161.5587    1463.2637    698.29504    208.80249   -1303.6961    24132.558     0.671894 
  551000       551000    2434.4065    2195.9455    1520.6193    675.32615    216.98693    677.54497    24132.558     0.671894 
  552000       552000    2193.4425    2139.4659    1516.6962    622.76973    216.42711    153.36507    24132.558     0.671894 
  553000       553000    2071.2971    2207.1745    1532.1287    675.04575    218.62928   -386.07158    24132.558     0.671894 
  554000       554000    2501.9135     2177.942    1496.4284    681.51351    213.53498    920.50821    24132.558     0.671894 
  555000       555000    1843.7886    2223.5273    1543.5834    679.94388    220.26382   -1078.9607    24132.558     0.671894 
  556000       556000    1961.7265    2204.1439    1501.1443     702.9996    214.20792   -688.78658    24132.558     0.671894 
  557000       557000    2501.7659    2151.7619    1469.6229    682.13903    209.70992    994.47467    24132.558     0.671894 
  558000       558000     2701.189    2241.7148     1519.755    721.95976    216.86359     1305.515    24132.558     0.671894 
  559000       559000    1628.4484    2176.6458    1521.1021     655.5437    217.05582   -1557.6064    24132.558     0.671894 
  560000       560000    1788.0622    2134.7744    1449.1825    685.59185    206.79315   -985.12144    24132.558     0.671894 
  561000       561000    2605.8798    2189.6782    1508.7463    680.93193    215.29269    1182.5634    24132.558     0.671894 
  562000       562000    2370.3641    2157.1636    1474.9419    682.22172    210.46892    605.77163    24132.558     0.671894 
  563000       563000    1891.7005    2184.5552    1510.8079    673.74739    215.58687   -832.09511    24132.558     0.671894 
  564000       564000    1780.2282    2172.9387    1513.6252     659.3135     215.9889   -1115.8179    24132.558     0.671894 
  565000       565000    1928.5154    2161.1859    1502.8891     658.2968    214.45688   -661.09205    24132.558     0.671894 
  566000       566000    1965.3231    2199.3641    1510.2367    689.12742    215.50537    -664.9864    24132.558     0.671894 
  567000       567000    2254.0943    2185.3291    1508.2277     677.1014    215.21869    195.38422    24132.558     0.671894 
  568000       568000    2896.0535    2250.9639    1558.1125    692.85148    222.33707    1832.9083    24132.558     0.671894 
  569000       569000    2301.0583    2200.9891    1512.8511    688.13803    215.87843    284.32903    24132.558     0.671894 
  570000       570000    2027.8254     2253.743    1538.9973    714.74574     219.6094   -641.90523    24132.558     0.671894 
  571000       571000    2778.8312    2174.8002    1495.6413    679.15886    213.42266    1716.2477    24132.558     0.671894 
  572000       572000      2190.13    2209.3454    1524.3064    685.03908    217.51306   -54.597362    24132.558     0.671894 
  573000       573000    1349.1504    2117.8378    1471.5924    646.24542    209.99096   -2184.0899    24132.558     0.671894 
  574000       574000    1801.7013    2199.9011    1521.3151    678.58605    217.08621   -1131.4147    24132.558     0.671894 
  575000       575000    2754.0944    2213.2576    1537.6573    675.60033    219.41818    1536.6927    24132.558     0.671894 
  576000       576000    2141.7001    2083.8587    1459.8161    624.04261    208.31053    164.34628    24132.558     0.671894 
  577000       577000    2332.4417    2199.2764    1507.3015     691.9748    215.08653    378.36596    24132.558     0.671894 
  578000       578000    2123.0535     2226.291    1507.1213    719.16969    215.06081    -293.3311    24132.558     0.671894 
  579000       579000    2009.9904    2171.7108    1489.7623    681.94852    212.58374   -459.50004    24132.558     0.671894 
  580000       580000    2039.7058    2183.1599    1491.0817    692.07814    212.77202   -407.59943    24132.558     0.671894 
  581000       581000    2490.1235    2192.0354    1541.7918    650.24365    220.00816    846.96488    24132.558     0.671894 
  582000       582000    2257.4198    2144.8084    1490.2743    654.53417     212.6568    319.96535    24132.558     0.671894 
  583000       583000    2207.2608    2225.6148    1500.4101    725.20461    214.10315   -52.149578    24132.558     0.671894 
  584000       584000    2077.6892    2182.3442    1538.7327    643.61153    219.57164    -297.3589    24132.558     0.671894 
  585000       585000    2283.1181    2200.3857    1461.0279    739.35789    208.48344    235.06938    24132.558     0.671894 
  586000       586000    1970.7659    2111.4256    1474.4691    636.95648    210.40146    -399.6599    24132.558     0.671894 
  587000       587000    2241.4918     2191.776    1506.1099    685.66612    214.91649    141.25871    24132.558     0.671894 
  588000       588000    2315.9152    2189.0911    1527.2154    661.87561    217.92817    360.34846    24132.558     0.671894 
  589000       589000    1857.0578    2179.5062    1497.8901    681.61613    213.74355   -916.18056    24132.558     0.671894 
  590000       590000    2554.2991    2193.5167    1514.7016    678.81505     216.1425    1025.0998    24132.558     0.671894 
  591000       591000    1811.9153    2197.4379     1459.468    737.96984    208.26086   -1095.3946    24132.558     0.671894 
[...]
  857000       857000    1941.8693    2184.7604    1511.5833    673.17702    215.69753   -690.13224    24132.558     0.671894 
  858000       858000    1826.8816    2160.7744    1482.1837    678.59074     211.5023    -948.6976    24132.558     0.671894 
  859000       859000     2517.833    2133.0878    1477.4743    655.61351    210.83029    1093.1858    24132.558     0.671894 
  860000       860000    2739.2744    2221.9493    1563.7376    658.21171    223.13975    1469.8883    24132.558     0.671894 
  861000       861000    2329.4032    2120.0091    1461.7728    658.23626    208.58974    594.95643    24132.558     0.671894 
  862000       862000    2904.7822    2185.9501    1525.6281    660.32194    217.70167     2042.435    24132.558     0.671894 
  863000       863000    2787.2386    2221.0141    1550.4663    670.54784    221.24598     1608.827    24132.558     0.671894 
  864000       864000    2672.1627    2249.1844    1536.8453     712.3391    219.30232    1201.8181    24132.558     0.671894 
  865000       865000    2378.6412     2161.621    1497.5303    664.09075     213.6922    616.62469    24132.558     0.671894 
  866000       866000    2092.8853    2196.6809    1511.2746    685.40628    215.65347   -294.91687    24132.558     0.671894 
  867000       867000    2760.9673    2231.9006    1525.6435    706.25705    217.70386    1503.2501    24132.558     0.671894 
  868000       868000    2328.7597    2224.4288    1519.2886     705.1402    216.79703    296.43805    24132.558     0.671894 
  869000       869000    2453.8292    2146.0267    1494.7293    651.29736    213.29252    874.56652    24132.558     0.671894 
  870000       870000    2686.2409    2185.7821     1475.038     710.7441    210.48264    1421.9655    24132.558     0.671894 
  871000       871000    2422.9244    2193.3266    1495.9342    697.39238    213.46445    652.36176    24132.558     0.671894 
  872000       872000    2366.6131    2202.2589    1512.7042    689.55469    215.85747     466.9835    24132.558     0.671894 
  873000       873000    2605.9863     2197.795    1505.6643    692.13065     214.8529    1159.8039    24132.558     0.671894 
  874000       874000    2255.6325    2228.1221    1519.8706    708.25153    216.88008    78.165848    24132.558     0.671894 
  875000       875000    2348.6469    2167.2182    1509.1741    658.04403    215.35374    515.49764    24132.558     0.671894 
  876000       876000    1970.3532    2133.3637    1468.3884    664.97528    209.53377   -463.16562    24132.558     0.671894 
  877000       877000    2253.1743    2175.3029    1513.6321    661.67079    215.98988     221.2579    24132.558     0.671894 
  878000       878000    2071.0903    2221.0512    1517.4423    703.60891    216.53358   -426.08737    24132.558     0.671894 
  879000       879000    2103.1683    2128.2963    1472.0652    656.23111    210.05843   -71.396867    24132.558     0.671894 
  880000       880000    2467.4389    2153.7752     1507.518    646.25717    215.11742    891.22037    24132.558     0.671894 
  881000       881000    2148.9996    2191.9671    1482.8274    709.13975    211.59415   -122.08462    24132.558     0.671894 
  882000       882000     1941.171    2235.6908    1532.2333    703.45745    218.64421   -836.82602    24132.558     0.671894 
  883000       883000    2137.1326    2184.4321    1515.4293    669.00283    216.24633   -134.39327    24132.558     0.671894 
  884000       884000    2169.6504    2145.6686    1476.8973    668.77128    210.74796    68.140015    24132.558     0.671894 
  885000       885000    2373.5781    2190.7098    1532.9389     657.7709    218.74489    519.58812    24132.558     0.671894 
  886000       886000    2922.2391    2246.7664    1524.0394    722.72704    217.47496    1919.2369    24132.558     0.671894 
  887000       887000    1942.8754    2177.8804     1485.257     692.6234    211.94085   -667.72536    24132.558     0.671894 
  888000       888000    2764.9717    2178.0045    1540.7134    637.29104    219.85428     1667.764    24132.558     0.671894 
  889000       889000    1864.9691    2145.7867    1490.1841    655.60268    212.64393   -797.89379    24132.558     0.671894 
  890000       890000     1729.354    2172.8186    1463.1865    709.63216    208.79147   -1260.0267    24132.558     0.671894 
  891000       891000    2713.0983     2196.546    1523.0303     673.5157    217.33096    1467.6926    24132.558     0.671894 
  892000       892000    2503.9254     2118.174    1451.8957     666.2783    207.18031    1096.0447    24132.558     0.671894 
  893000       893000    2593.3056    2190.9733    1490.0452    700.92801    212.62412    1143.1566    24132.558     0.671894 
  894000       894000    2093.6591    2207.3471    1523.7607    683.58641    217.43519   -323.02447    24132.558     0.671894 
  895000       895000    2333.2106    2247.0202    1524.6362      722.384    217.56012    244.89487    24132.558     0.671894 
  896000       896000    1819.4052    2171.1618    1473.0963    698.06552    210.20557   -999.45461    24132.558     0.671894 
  897000       897000    2105.8919    2134.5599    1476.2303    658.32966    210.65277   -81.455155    24132.558     0.671894 
  898000       898000    1689.4703    2228.1943    1514.4601    713.73422    216.10803   -1530.6894    24132.558     0.671894 
  899000       899000    1877.8553    2182.0297    1470.3922    711.63749     209.8197   -864.25814    24132.558     0.671894 
  900000       900000     2377.444    2148.2185    1509.4125    638.80597    215.38776    651.30387    24132.558     0.671894 
  901000       901000    2126.7019    2201.7517    1514.2593    687.49235    216.07938   -213.24078    24132.558     0.671894 
  902000       902000      1981.04     2144.851    1489.3765    655.47446    212.52869   -465.43993    24132.558     0.671894 
  903000       903000    2113.0881    2201.3494    1493.2424    708.10694    213.08034   -250.77883    24132.558     0.671894 
  904000       904000    1941.3229     2206.044    1536.9026    669.14141    219.31049   -752.15854    24132.558     0.671894 
  905000       905000    1695.3562    2171.4621    1510.4695    660.99252    215.53859    -1352.771    24132.558     0.671894 
  906000       906000    2034.7316     2208.939    1498.8711    710.06791    213.88353   -494.97952    24132.558     0.671894 
  907000       907000    2445.6583    2113.5914     1472.885    640.70639    210.17542    943.50946    24132.558     0.671894 
  908000       908000     2379.818    2202.7948    1499.7527    703.04207    214.00934    502.98027    24132.558     0.671894 
  909000       909000    2603.1212    2167.4696    1496.6765    670.79313    213.57037    1237.8273    24132.558     0.671894 
  910000       910000     2281.792    2185.9524    1492.1313    693.82111    212.92179    272.31125    24132.558     0.671894 
  911000       911000    1775.4125    2195.0343    1495.2337    699.80062    213.36449   -1192.2815    24132.558     0.671894 
  912000       912000    1943.7828    2185.5365    1510.3581    675.17839    215.52269   -686.90055    24132.558     0.671894 
  913000       913000     2019.954    2145.9279    1468.4366    677.49123    209.54065   -357.93252    24132.558     0.671894 
  914000       914000    2396.1494    2166.3033     1507.994    658.30926    215.18534    653.06737    24132.558     0.671894 
  915000       915000    1562.1157    2215.8698     1532.445    683.42483    218.67441   -1857.5272    24132.558     0.671894 
  916000       916000    2546.9602     2208.313    1505.8168    702.49619    214.87467    962.20641    24132.558     0.671894 
  917000       917000    2146.8467     2111.203    1494.5618    616.64121    213.26861    101.27535    24132.558     0.671894 
  918000       918000    1975.8079    2174.6195    1506.2715    668.34798    214.93955   -564.88804    24132.558     0.671894 
  919000       919000    2066.1885    2231.5724    1517.9769    713.59555    216.60986   -469.90924    24132.558     0.671894 
  920000       920000    2168.9253    2195.4577    1517.9403    677.51739    216.60465   -75.387352    24132.558     0.671894 
  921000       921000    1163.8524    2186.0492    1526.3936    659.65558     217.8109   -2904.3922    24132.558     0.671894 
  922000       922000    2173.8814     2109.668    1456.6256    653.04239    207.85526    182.45093    24132.558     0.671894 
  923000       923000    2334.0941    2172.5171    1509.9266    662.59046    215.46112    459.09257    24132.558     0.671894 
  924000       924000    2021.0937     2175.673    1503.3359     672.3371    214.52064   -439.20966    24132.558     0.671894 
  925000       925000     2184.425    2180.5802    1519.6174    660.96279    216.84396    10.924131    24132.558     0.671894 
  926000       926000    2145.8228    2162.0546    1504.3065    657.74817    214.65914     -46.1198    24132.558     0.671894 
  927000       927000      2400.88    2235.3051    1528.4349    706.87023    218.10218    470.45197    24132.558     0.671894 
  928000       928000    2013.8069    2147.9536    1510.7985     637.1551    215.58553   -381.15411    24132.558     0.671894 
  929000       929000    2829.6216    2221.3442    1527.0505     694.2937    217.90463    1728.3132    24132.558     0.671894 
  930000       930000    1880.6781    2226.1661    1503.5356    722.63048    214.54915   -981.64337    24132.558     0.671894 
  931000       931000    2569.5198    2173.8923    1497.5882    676.30412    213.70047    1124.1059    24132.558     0.671894 
  932000       932000    2048.5586    2219.5868    1531.6262    687.96063    218.55757   -485.94652    24132.558     0.671894 
  933000       933000    1970.9789    2202.3763    1526.6601    675.71624    217.84893   -657.47521    24132.558     0.671894 
  934000       934000    2465.8315    2176.1725    1524.9362    651.23622    217.60294     823.0152    24132.558     0.671894 
  935000       935000    1737.0947     2187.506    1521.7149    665.79107    217.14327   -1279.7644    24132.558     0.671894 
  936000       936000    2018.4434    2193.5139    1509.0481    684.46581    215.33576   -497.43213    24132.558     0.671894 
  937000       937000    2460.9236    2089.7319    1466.3662    623.36569    209.24521    1054.6758    24132.558     0.671894 
  938000       938000    1537.7436    2227.3775    1504.2155    723.16201    214.64616   -1959.4734    24132.558     0.671894 
  939000       939000    2086.9729    2136.3889    1506.6981    629.69083    215.00042   -140.40698    24132.558     0.671894 
  940000       940000    2876.4894    2222.7778    1504.1003    718.67745    214.62972    1857.4065    24132.558     0.671894 
  941000       941000    2096.5478    2159.4708    1513.1398    646.33101    215.91962   -178.78449    24132.558     0.671894 
  942000       942000    2398.8119    2239.5616    1504.9561    734.60545    214.75184    452.48193    24132.558     0.671894 
  943000       943000    2626.5748    2205.9661    1526.4217    679.54435    217.81491    1195.0855    24132.558     0.671894 
  944000       944000    2304.2627    2185.4238    1471.6043    713.81947    209.99266    337.65994    24132.558     0.671894 
  945000       945000    2075.6232    2178.9176    1504.5717    674.34595    214.69699    -293.4929    24132.558     0.671894 
  946000       946000     2800.436    2222.7577    1538.5561    684.20158    219.54645    1641.3713    24132.558     0.671894 
  947000       947000    2106.7149    2218.5571    1534.0698    684.48727    218.90627   -317.78004    24132.558     0.671894 
  948000       948000    1774.4883      2182.18    1474.4873    707.69269    210.40406   -1158.3843    24132.558     0.671894 
  949000       949000     1886.378    2220.7598    1519.1354    701.62438    216.77518   -950.08682    24132.558     0.671894 
  950000       950000    1550.9765    2161.2018    1481.6199    679.58185    211.42185   -1733.8477    24132.558     0.671894 
  951000       951000    2297.7896    2264.5968    1565.3189    699.27788     223.3654    94.311501    24132.558     0.671894 
  952000       952000    2056.2131    2186.3425    1505.1451    681.19743    214.77881    -369.7398    24132.558     0.671894 
  953000       953000    1811.4353    2165.2026    1520.8407    644.36189    217.01851   -1005.1674    24132.558     0.671894 
  954000       954000    2148.5144    2266.5614    1545.0905    721.47093    220.47888   -335.40988    24132.558     0.671894 
  955000       955000    2528.3449    2168.2547    1520.7285    647.52624     217.0025    1023.1331    24132.558     0.671894 
  956000       956000    2130.7237    2130.9848    1460.1008    670.88398    208.35115  -0.74190414    24132.558     0.671894 
  957000       957000    2746.8811    2191.7483    1521.4539    670.29446    217.10601    1577.3121    24132.558     0.671894 
  958000       958000     2269.573    2173.7615    1512.7466    661.01494    215.86351    272.23139    24132.558     0.671894 
  959000       959000    2134.1321    2265.8144    1535.7364    730.07805    219.14408     -374.152    24132.558     0.671894 
  960000       960000    2333.8021    2212.2084    1550.3061    661.90221    221.22313    345.48708    24132.558     0.671894 
  961000       961000    2021.2537    2126.7199    1465.3779    661.34199    209.10418   -299.66383    24132.558     0.671894 
  962000       962000     1884.788    2218.4996    1523.4657    695.03389     217.3931    -948.1829    24132.558     0.671894 
  963000       963000    1395.3891    2156.8953    1519.4143    637.48106    216.81497   -2163.6858    24132.558     0.671894 
  964000       964000    1701.7634    2179.5313    1495.4713    684.05994     213.3984   -1357.4934    24132.558     0.671894 
  965000       965000    2185.8078    2251.0268    1548.5573    702.46953    220.97358   -185.30837    24132.558     0.671894 
  966000       966000    2210.5191    2173.2178    1481.9764    691.24139    211.47272    105.98527    24132.558     0.671894 
  967000       967000    2856.7254    2142.4322    1470.2423    672.18989    209.79831    2029.5384    24132.558     0.671894 
  968000       968000    2237.0894    2199.2717    1513.7381    685.53357      216.005    107.45233    24132.558     0.671894 
  969000       969000    1560.6997    2203.6838    1525.5931    678.09066    217.69667   -1826.9261    24132.558     0.671894 
  970000       970000    2342.0524    2126.2242    1484.0093    642.21489    211.76281    613.23798    24132.558     0.671894 
  971000       971000    2433.5409    2207.9429    1517.2286    690.71429    216.50308    640.99706    24132.558     0.671894 
  972000       972000     2101.724    2189.3349    1503.3338    686.00115    214.52034   -248.93092    24132.558     0.671894 
  973000       973000    1873.7375    2185.8407    1506.0784    679.76233    214.91199   -886.78631    24132.558     0.671894 
  974000       974000    2236.1688    2181.6467    1480.4872     701.1595    211.26022    154.91484    24132.558     0.671894 
  975000       975000    2645.8242    2199.7956     1520.266    679.52959    216.93651    1267.3117    24132.558     0.671894 
  976000       976000    2089.9526     2195.101     1496.922    698.17892    213.60541   -298.76043    24132.558     0.671894 
  977000       977000    2115.8837    2175.0905    1525.7573    649.33323    217.72009   -168.22554    24132.558     0.671894 
  978000       978000    1786.9271    2187.2826    1504.3833    682.89927    214.67011   -1137.5394    24132.558     0.671894 
  979000       979000    2437.1567    2179.7263    1472.5931    707.13323    210.13376    731.44306    24132.558     0.671894 
  980000       980000      2206.04    2205.1965    1504.6924    700.50405    214.71422    2.3968846    24132.558     0.671894 
  981000       981000    2234.0793    2155.4411    1503.4676    651.97343    214.53945    223.43673    24132.558     0.671894 
  982000       982000      2243.11    2141.1119    1512.1146    628.99728    215.77334    289.80971    24132.558     0.671894 
  983000       983000    2392.4061    2191.1536    1495.8115    695.34209    213.44695    571.82355    24132.558     0.671894 
  984000       984000    1827.5634    2215.8798    1501.9654    713.91434    214.32509   -1103.3326    24132.558     0.671894 
  985000       985000    1700.8694    2098.5612    1506.8046    591.75655    215.01562   -1129.9712    24132.558     0.671894 
  986000       986000     2449.621    2210.1931    1536.8692    673.32397    219.30572    680.29203    24132.558     0.671894 
  987000       987000    2068.9843    2141.7277    1502.0035     639.7242    214.33052   -206.68776    24132.558     0.671894 
  988000       988000    2520.6502      2202.81    1530.7675    672.04256    218.43503    903.08704    24132.558     0.671894 
  989000       989000    2603.6633    2212.2037    1535.4768     676.7269    219.10704    1112.2634    24132.558     0.671894 
  990000       990000    2243.6139    2242.5851     1539.421    703.16406    219.66986    2.9232191    24132.558     0.671894 
  991000       991000    2410.2675    2179.0627    1491.3922    687.67042    212.81633    656.92772    24132.558     0.671894 
  992000       992000    1859.8294    2112.4288    1487.4943    624.93448     212.2601   -717.71673    24132.558     0.671894 
  993000       993000    1916.0586    2166.7138    1525.6456    641.06818    217.70416   -712.19244    24132.558     0.671894 
  994000       994000    2435.9148     2171.459    1500.4396    671.01944    214.10735    751.40444    24132.558     0.671894 
  995000       995000    2388.8876    2206.5498    1509.5929     696.9569    215.41349    518.08089    24132.558     0.671894 
  996000       996000    2086.3981    2168.7601    1495.0011    673.75903    213.33129   -234.01711    24132.558     0.671894 
  997000       997000    2477.0813    2133.4216    1447.9723     685.4493    206.62046    976.44847    24132.558     0.671894 
  998000       998000    1584.1026    2181.3617    1498.3696    682.99206    213.81197   -1697.0066    24132.558     0.671894 
  999000       999000    2460.0172    2271.7729    1557.3838    714.38908    222.23309    534.86308    24132.558     0.671894 
 1000000      1000000     2385.517    2172.4917    1511.7918    660.69998    215.72727    605.27376    24132.558     0.671894 
 1000001      1000001    2569.3245    2173.4437    1502.6708    670.77291    214.42574    1124.8254    24132.558     0.671894 
Loop time of 1523.62 on 24 procs for 1000000 steps with 2352 atoms

Performance: 56.707 ns/day, 0.423 hours/ns, 656.331 timesteps/s
92.9% CPU use with 24 MPI tasks x 1 OpenMP threads

MPI task timing breakdown:
Section |  min time  |  avg time  |  max time  |%varavg| %total
---------------------------------------------------------------
Pair    | 747        | 772.37     | 790.98     |  38.4 | 50.69
Bond    | 37.103     | 37.891     | 38.411     |   5.1 |  2.49
Kspace  | 203.25     | 238.5      | 264.11     |  93.2 | 15.65
Neigh   | 44.242     | 44.741     | 45.146     |   3.2 |  2.94
Comm    | 328.14     | 340.31     | 359        |  36.8 | 22.34
Output  | 0.040302   | 0.71571    | 16.245     | 382.7 |  0.05
Modify  | 8.811      | 13.286     | 16.209     |  64.0 |  0.87
Other   |            | 75.81      |            |       |  4.98

Nlocal:    98 ave 108 max 87 min
Histogram: 3 0 2 4 5 0 2 1 4 3
Nghost:    5385.42 ave 5446 max 5335 min
Histogram: 3 3 3 3 0 4 3 1 1 3
Neighs:    54826 ave 62203 max 47339 min
Histogram: 2 2 2 3 4 1 3 3 3 1

Total # of neighbors = 1315824
Ave neighs/atom = 559.449
Ave special neighs/atom = 9.14286
Neighbor list builds = 27554
Dangerous builds = 0

write_data butane_afterr_nvt1_200K.data
Ewald initialization ...
  using 12-bit tables for long-range coulomb (src/kspace.cpp:332)
  G vector (1/distance) = 0.188509
  estimated absolute RMS force accuracy = 0.00426774
  estimated relative force accuracy = 1.28522e-05
  KSpace vectors: actual max1d max3d = 128 4 364
                  kxmax kymax kzmax  = 4 4 4
Total wall time: 0:25:23
