LAMMPS (3 Mar 2020)
  using 1 OpenMP thread(s) per MPI task
units           real
atom_style      full
boundary        p p p


pair_style      lj/cut/coul/long 12.0
pair_modify     tail yes mix geometric
bond_style      harmonic
angle_style     harmonic
dihedral_style  opls

kspace_style    ewald 1.0e-5
#special_bonds   lj/coul 0.0 0.0 0.5

neighbor        2.0 bin
neigh_modify    every 1 delay 0 check yes

read_data       buate_after_min.data
  orthogonal box = (0 0 0) to (35 35 35)
  2 by 3 by 5 MPI processor grid
  reading atoms ...
  2352 atoms
  reading velocities ...
  2352 velocities
  scanning bonds ...
  1 = max bonds/atom
  scanning angles ...
  6 = max angles/atom
  scanning dihedrals ...
  11 = max dihedrals/atom
  reading bonds ...
  2184 bonds
  reading angles ...
  4032 angles
  reading dihedrals ...
  4536 dihedrals
  4 = max # of 1-2 neighbors
  6 = max # of 1-3 neighbors
  9 = max # of 1-4 neighbors
  13 = max # of special neighbors
  special bonds CPU = 0.00136098 secs
  read_data CPU = 0.0282245 secs

group           mobile union all
2352 atoms in group mobile

#minimize 1.0e-8 1.0e-10 400000 400000
#write_data buate_after_min.data

thermo_style    custom step time  etotal ke pe temp press vol density
#thermo_modify   line multi
thermo          2000
thermo_modify   flush yes
timestep 1.0


## Equil NPT ##
fix      NPT  all npt temp 272 272 100 iso 1 1 1000
restart 1000000 liqbut1.restart

#fix      NPT  all npt temp 160 160 50 iso 1 1 500
dump myDump all atom 2000 butane_npt.lammpstrj

run 5000000
Ewald initialization ...
  using 12-bit tables for long-range coulomb (src/kspace.cpp:332)
  G vector (1/distance) = 0.183139
  estimated absolute RMS force accuracy = 0.00345955
  estimated relative force accuracy = 1.04183e-05
  KSpace vectors: actual max1d max3d = 257 5 665
                  kxmax kymax kzmax  = 5 5 5
Neighbor list info ...
  update every 1 steps, delay 0 steps, check yes
  max neighbors/atom: 2000, page size: 100000
  master list distance cutoff = 14
  ghost atom cutoff = 14
  binsize = 7, bins = 5 5 5
  1 neighbor lists, perpetual/occasional/extra = 1 0 0
  (1) pair lj/cut/coul/long, perpetual
      attributes: half, newton on
      pair build: half/bin/newton
      stencil: half/bin/3d/newton
      bin: standard
Per MPI rank memory allocation (min/avg/max) = 21.73 | 21.87 | 22.23 Mbytes
Step Time TotEng KinEng PotEng Temp Press Volume Density 
       0            0   -769.51728            0   -769.51728            0   -124.28966        42875   0.37818125 
    2000         2000   -217.67661    400.65983   -618.33645    57.172723   -137.57665    34882.567   0.46483164 
    4000         4000    2912.3867    1950.1606    962.22611    278.28093    657.33037    50976.482   0.31807846 
    6000         6000    3147.3224    1877.2205    1270.1018    267.87264    56.410471    63455.054   0.25552765 
    8000         8000    3363.3181    1896.3847    1466.9334     270.6073    192.08483    73096.735   0.22182278 
   10000        10000    3471.6015    1921.9185     1549.683    274.25088    366.56306    81961.556   0.19783081 
   12000        12000    3460.5216    1886.2988    1574.2228    269.16808   -70.765643    89708.939   0.18074588 
   14000        14000    3576.0574    1913.3221    1662.7353    273.02421   -275.87944    96289.494   0.16839346 
   16000        16000    3613.8611    1916.6656    1697.1955    273.50131   -205.61274     102030.5   0.15891837 
   18000        18000    3591.1468    1896.9539    1694.1929    270.68852     496.4557     103919.6   0.15602948 
   20000        20000    3574.0175    1919.7711    1654.2464    273.94446     99.60656    109976.86   0.14743575 
   22000        22000    3578.4524    1875.9583    1702.4941    267.69253   -110.94173    116046.06   0.13972488 
   24000        24000    3557.9856    1873.2489    1684.7367    267.30591    61.027836     108390.4    0.1495937 
   26000        26000    3608.4808    1907.6622    1700.8186    272.21655    15.915167    103001.19   0.15742072 
   28000        28000    3547.6065    1883.7264    1663.8801    268.80101    81.779916    96687.297   0.16770063 
   30000        30000    3592.1789    1899.5311    1692.6478    271.05628    295.42643    87036.134   0.18629643 
   32000        32000    3520.6467    1903.3863    1617.2604     271.6064     6.237044    79001.186   0.20524402 
   34000        34000    3618.7085    1925.6522    1693.0563    274.78367   -191.58178    72340.268    0.2241424 
   36000        36000    3490.3744    1888.8641    1601.5103    269.53414    139.77075     64848.83   0.25003568 
   38000        38000    3503.6456     1952.963    1550.6827    278.68082   -101.83444    58303.087   0.27810741 
   40000        40000    3454.3238    1902.5674    1551.7564    271.48955    230.92603    52012.062    0.3117454 
   42000        42000    3383.0216    1880.5904    1502.4312    268.35351    442.29427    45616.988   0.35544918 
   44000        44000    3346.3005    1907.9385     1438.362    272.25599   -314.98674    39219.728   0.41342767 
   46000        46000    3248.6412     1917.102    1331.5392    273.56359    529.24067    34397.502   0.47138658 
   48000        48000    3175.9221    1907.1612    1268.7608    272.14508   -558.44229    30905.631   0.52464616 
   50000        50000    3144.4034    1888.3097    1256.0937    269.45503   -793.78156    29317.996   0.55305693 
   52000        52000    3225.1447    1929.8356    1295.3091    275.38062   -1470.2062    29461.317   0.55036646 
   54000        54000    3157.9052    1927.3461    1230.5591    275.02539   -634.23094     28471.21   0.56950586 
   56000        56000     3080.686    1866.6573    1214.0286    266.36531   -151.73973      28099.1   0.57704769 
   58000        58000    3139.1737    1925.4095    1213.7643    274.74903    369.56639    27512.136   0.58935885 
   60000        60000    3103.5834    1876.0512    1227.5322    267.70578    118.95691    27503.803   0.58953741 
   62000        62000    3130.5879    1930.2852    1200.3027    275.44478    417.83897    27106.339   0.59818188 
   64000        64000     3111.864    1882.0349     1229.829    268.55964       29.949    27351.771    0.5928143 
   66000        66000    3152.4678    1927.9014    1224.5664    275.10462    172.83791     27663.94   0.58612478 
   68000        68000    3027.9061    1859.9883    1167.9178    265.41366    1071.9498    26805.187   0.60490237 
   70000        70000    3076.3379    1934.5645    1141.7734    276.05543    731.26189    26955.441   0.60153054 
   72000        72000    3047.8682    1904.9363    1142.9319    271.82759    555.26373    26784.599   0.60536732 
   74000        74000    3114.8962    1924.5564    1190.3397    274.62731   -4.8798019    26791.707   0.60520671 
   76000        76000    3065.0371    1888.5662    1176.4709    269.49164    925.69221    26414.987   0.61383794 
   78000        78000    3069.1313    1862.9809    1206.1504     265.8407     1277.859    26404.845    0.6140737 
   80000        80000    3207.2196    1934.6852    1272.5344    276.07265   -424.27274    27125.645   0.59775614 
   82000        82000    3164.4075    1950.3712    1214.0363    278.31098    1853.0773     26935.18   0.60198302 
   84000        84000    3069.0422    1822.0617    1246.9805    260.00167   -1681.4049     27434.72   0.59102192 
   86000        86000    3079.4821    1911.2557    1168.2264    272.72934   -553.98898    26492.666    0.6120381 
   88000        88000     3110.515    1921.7532    1188.7617     274.2273    751.82485    26462.962    0.6127251 
   90000        90000    3055.3342    1889.5333    1165.8009    269.62964     142.8066    27170.495   0.59676944 
   92000        92000    3080.4022    1909.6409    1170.7612    272.49892   -515.83457    27082.769   0.59870247 
   94000        94000    3137.4948     1880.151    1257.3438    268.29081    857.17679    26948.722   0.60168052 
   96000        96000    3119.8125    1884.6754    1235.1371    268.93642   -119.45767    26624.502   0.60900747 
   98000        98000    3021.0936    1862.5079    1158.5857     265.7732    1180.3817    26139.273   0.62031261 
  100000       100000    3067.3052    1900.3452    1166.9599    271.17246   -1336.1342    26611.036   0.60931566 
  102000       102000     3131.752    1938.0804    1193.6716    276.55713    899.13553    26560.768   0.61046883 
  104000       104000    3072.7165    1926.4147    1146.3018    274.89248   -953.73607    26359.027    0.6151411 
  106000       106000    3121.3042    1939.8288    1181.4754    276.80663   -51.039082    26367.604     0.614941 
  108000       108000    3105.2305    1923.4487    1181.7818    274.46924    284.90251    26359.657   0.61512641 
  110000       110000    3027.1823    1891.0395    1136.1428    269.84456    2217.2385     26585.35   0.60990435 
  112000       112000    3086.7688    1893.6307    1193.1381    270.21431    382.16727    26214.764    0.6185263 
  114000       114000    3028.8132     1879.329    1149.4842    268.17351    163.52042    26427.998   0.61353572 
  116000       116000    3010.9311    1874.8373    1136.0938    267.53257     577.6897    26150.322   0.62005053 
  118000       118000    3063.6174     1909.479    1154.1383    272.47582    38.780672    26401.441   0.61415287 
  120000       120000    3099.9967    1903.5117     1196.485    271.62431     283.3655    26004.005   0.62353936 
  122000       122000     3079.788    1915.3207    1164.4673     273.3094    89.565839    26574.535   0.61015257 
  124000       124000    2924.1981     1842.473     1081.725     262.9143    1037.3897    25601.338   0.63334663 
  126000       126000    3071.1364    1934.9994     1136.137    276.11748    1112.5248    26550.434   0.61070644 
  128000       128000    3094.3993    1909.6654     1184.734     272.5024    861.59272    26985.928   0.60085097 
  130000       130000    3102.4891    1872.2199    1230.2692    267.15907   -1794.3856    27676.309   0.58586285 
  132000       132000    3090.7391    1927.9574    1162.7817    275.11262    801.00875    26926.299   0.60218156 
  134000       134000    3095.7074    1893.1499    1202.5575    270.14571    498.29097    26738.108   0.60641992 
  136000       136000    3110.9365    1906.5655     1204.371    272.06007   -634.11113    26494.327   0.61199974 
  138000       138000    3051.0485    1899.8653    1151.1831    271.10397    1530.9968    26398.293   0.61422612 
  140000       140000    3058.9882     1892.193    1166.7952    270.00916    2413.9967    26419.604   0.61373067 
  142000       142000    3094.3723    1924.4692    1169.9031    274.61486   -975.42835    26314.752   0.61617608 
  144000       144000    3054.1951    1907.7618    1146.4333    272.23078   -927.00865    26443.248   0.61318189 
  146000       146000    3136.6339    1945.2349     1191.399    277.57805   -1088.4117     26336.99   0.61565582 
  148000       148000    3021.8299    1862.2208    1159.6091    265.73223   -890.95365    26646.797   0.60849793 
  150000       150000    3107.5879    1914.4757    1193.1122    273.18883    2210.6382    26557.181   0.61055128 
  152000       152000    3116.4675    1921.4275    1195.0401    274.18082    2058.9562    26796.065   0.60510828 
  154000       154000    3036.9541    1833.8056    1203.1485    261.67749   -1790.3481    26511.232   0.61160948 
  156000       156000    3135.8191    1945.4847    1190.3344     277.6137    653.55787     26828.77   0.60437063 
  158000       158000    3024.2464    1877.7826    1146.4638    267.95284    614.86334    25936.683   0.62515786 
  160000       160000    3112.9352    1938.6428    1174.2924    276.63738    2101.8991    26532.861   0.61111092 
  162000       162000     3055.977    1882.6335    1173.3435    268.64506    1111.6949    26868.368   0.60347994 
  164000       164000    3162.6944    1947.9113    1214.7831    277.95997     949.9721    27092.453   0.59848847 
  166000       166000    3127.5084    1922.4023    1205.1061    274.31991   -172.75313    27261.202   0.59478378 
  168000       168000    3111.6667    1929.1661    1182.5006    275.28509    238.18192     26160.77   0.61980289 
  170000       170000    3128.9569    1926.3453    1202.6116    274.88258    771.76345     25858.11   0.62705746 
  172000       172000    3084.2881    1946.7719    1137.5162    277.79737    1519.2975     26181.42   0.61931403 
  174000       174000    3148.6049    1967.7738    1180.8311    280.79428   -566.01244    26531.273   0.61114749 
  176000       176000    3081.5053    1934.3453    1147.1599    276.02415    709.24518    26245.842   0.61779389 
  178000       178000     3066.394    1943.0489    1123.3451    277.26612   -838.50538    26169.866   0.61958747 
  180000       180000    3068.3927    1930.6582    1137.7346      275.498   -1095.8854    26132.074    0.6204835 
  182000       182000    3100.5011    1905.7746    1194.7265     271.9472    860.58573    26668.791   0.60799611 
  184000       184000    3068.2324    1860.8414    1207.3911    265.53539    26.163599     26076.45   0.62180708 
  186000       186000    3059.8206    1877.0396     1182.781    267.84682   -1181.7217    26434.079   0.61339458 
  188000       188000    3116.5844    1925.1276    1191.4568     274.7088    983.40384    25952.639   0.62477349 
  190000       190000    2997.4501    1884.2055    1113.2446    268.86937   -22.950254    25376.144    0.6389671 
  192000       192000    3088.2226    1929.5579    1158.6647    275.34101   -1033.6828    25755.068   0.62956623 
  194000       194000    3064.3446    1922.2276     1142.117      274.295    72.878705    26302.302   0.61646776 
  196000       196000    3052.8859    1913.6378    1139.2481    273.06926    260.19467    26062.099   0.62214946 
  198000       198000    3080.2219    1904.0096    1176.2123    271.69534    1480.2386      26693.9   0.60742419 
  200000       200000    3107.4667    1887.6572    1219.8094    269.36192    623.67357    26522.667   0.61134581 
  202000       202000    3088.4214    1865.2692    1223.1522    266.16723   -339.91941    26454.422    0.6129229 
  204000       204000    3082.4014    1915.3103    1167.0911    273.30792    17.235501    26630.803   0.60886339 
  206000       206000    3178.9729    1963.3171    1215.6558    280.15832   -1654.1539    26679.088   0.60776144 
  208000       208000    3066.9819    1874.3644    1192.6176    267.46508    1387.3173    26164.956   0.61970372 
  210000       210000    3161.2689    1962.5826    1198.6863    280.05351    443.98841    26167.695   0.61963886 
  212000       212000    3131.1528    1932.1609    1198.9919    275.71244    302.65608    26086.732   0.62156199 
  214000       214000    3076.1495    1933.3894      1142.76    275.88774   -768.21169    26056.845   0.62227491 
  216000       216000    3107.7222    1901.3562     1206.366    271.31672   -94.357054    25999.238    0.6236537 
  218000       218000    3102.9553    1892.5421    1210.4132    270.05897    377.18779    26498.449   0.61190453 
  220000       220000    3040.6073     1932.718    1107.8893    275.79193   -102.47374    26353.562   0.61526866 
  222000       222000    3146.1541    1944.5184    1201.6357    277.47581    86.831689    26616.389   0.60919312 
  224000       224000    3094.5542    1926.8082     1167.746    274.94862   -1182.9413    25966.331   0.62444404 
  226000       226000    3045.3253    1861.9728    1183.3525    265.69685   -1088.3608    26058.131    0.6222442 
  228000       228000    3125.1015    1918.8459    1206.2556    273.81244   -629.85169    26377.877    0.6147015 
  230000       230000    3162.9274     1915.022    1247.9054    273.26677    1072.5701    27155.156   0.59710653 
  232000       232000    2997.2851    1842.7708    1154.5143    262.95679   -331.25833    26839.653   0.60412557 
  234000       234000    3006.5869    1880.5622    1126.0247    268.34948   -529.79337     27263.05   0.59474347 
  236000       236000    3069.8156    1880.9393    1188.8763    268.40329     1019.092    26858.053   0.60371169 
  238000       238000    3128.1385    1955.7684    1172.3701    279.08115   -502.54191    26206.452   0.61872249 
  240000       240000    3104.2316    1873.1547    1231.0769    267.29247    1279.8814    27216.698   0.59575635 
  242000       242000    3141.1682    1912.9765    1228.1917     272.9749    254.61481    27349.141   0.59287131 
  244000       244000    3139.8269    1944.5706    1195.2563    277.48326    52.664211    27661.534   0.58617576 
  246000       246000    3086.9957    1882.3206    1204.6751     268.6004    55.066163     27141.37   0.59740981 
  248000       248000    3058.1939    1907.6216    1150.5722    272.21077   -350.44758    27271.958   0.59454922 
  250000       250000    2982.5497    1859.9965    1122.5532    265.41484    467.96413    27184.469   0.59646266 
  252000       252000    3180.0376    1946.0624    1233.9752    277.69613    293.34621    26947.051   0.60171783 
  254000       254000    3036.6215    1871.7663    1164.8552    267.09435    512.79554    26245.105   0.61781124 
  256000       256000    3089.2747    1900.4273    1188.8474    271.18417   -953.28582    26434.527    0.6133842 
  258000       258000    3126.9017    1898.3524    1228.5493    270.88808   -569.77874    26811.506   0.60475979 
  260000       260000    3038.2581    1914.0663    1124.1919     273.1304    2302.0704    26350.583   0.61533822 
  262000       262000    3082.1185    1896.5228    1185.5957    270.62701   -18.868048    26974.353   0.60110879 
  264000       264000    3097.9047    1918.5511    1179.3536    273.77037    306.58289    26727.815   0.60665343 
  266000       266000    3203.2918    1975.2913    1228.0005    281.86699    -955.9543    26851.249   0.60386469 
  268000       268000    3096.9333    1929.9757    1166.9576    275.40062    751.77228    26576.326   0.61011145 
  270000       270000    3116.1102    1921.8655    1194.2447    274.24332    499.34448    26764.112   0.60583071 
  272000       272000    3059.9117    1910.1259    1149.7858    272.56812    1472.6391     27206.35   0.59598296 
  274000       274000    3122.7452    1942.0593     1180.686     277.1249    1135.4586     26644.41   0.60855245 
  276000       276000    3138.6305    1874.0981    1264.5324    267.42709   -658.65467    27182.838   0.59649846 
  278000       278000    3060.9223    1867.9682    1192.9541    266.55237     987.2289    26594.272   0.60969975 
  280000       280000    3111.7498    1891.1014    1220.6484     269.8534   -1733.4339    27070.437   0.59897522 
  282000       282000    3163.7058    1943.7178     1219.988    277.36157    1119.3471    27399.528   0.59178103 
  284000       284000    3055.5404     1856.103    1199.4374    264.85925   -333.00377    26457.319   0.61285579 
  286000       286000    3034.1502    1919.9696    1114.1807    273.97278   -1135.3053    26236.209   0.61802072 
  288000       288000    3052.0842    1913.8686    1138.2156    273.10219    346.20097    27026.033   0.59995934 
  290000       290000    3101.9749    1881.4704    1220.5045    268.47908   -691.35044    27457.432   0.59053304 
  292000       292000    3077.5371    1902.6235    1174.9136    271.49755    218.32164    26884.652    0.6031144 
  294000       294000    3113.1137    1929.3507    1183.7631    275.31143    908.31353    26758.071   0.60596748 
  296000       296000    3095.9784    1864.5195    1231.4589    266.06025    172.78876    27426.521   0.59119861 
  298000       298000    3126.5112    1935.2741    1191.2371    276.15668   -1189.5874    26634.927   0.60876912 
  300000       300000    3076.4405    1922.2826    1154.1578    274.30284    782.69294    27094.683   0.59843921 
  302000       302000    3100.9638    1935.4383    1165.5255    276.18011   -133.47933    26996.319    0.6006197 
  304000       304000     3017.254    1880.3146    1136.9394    268.31416    406.68407     26902.59   0.60271226 
  306000       306000    3112.0393    1852.8816    1259.1577    264.39957   -99.817961    26891.169   0.60296825 
  308000       308000    3023.7895    1927.8063    1095.9832    275.09105    357.13839    25526.761   0.63519697 
  310000       310000      3051.92    1907.3128    1144.6072     272.1667    1802.2837    26224.628   0.61829365 
  312000       312000    3047.9283    1872.2989    1175.6293    267.17035    459.45107    26956.633   0.60150394 
  314000       314000    3143.6948    1958.1151    1185.5797    279.41601    246.82036    26615.321   0.60921756 
  316000       316000    3058.9721    1908.8054    1150.1667    272.37969    690.57574    25912.316   0.62574572 
  318000       318000    3008.3027    1853.2958    1155.0069    264.45867      330.073    26818.007   0.60461319 
  320000       320000    3147.4911    1973.6109    1173.8802     281.6272    952.28643     26541.11   0.61092099 
  322000       322000    3074.3648    1892.5976    1181.7672    270.06689     25.64993    26767.301   0.60575853 
  324000       324000    3052.0334    1874.3476    1177.6858    267.46269   -189.39842    27330.116   0.59328402 
  326000       326000    3087.7371    1944.4255    1143.3116    277.46255    1373.4774    27045.994   0.59951655 
  328000       328000    3086.9152     1941.312    1145.6032    277.01826    437.22843    26701.111   0.60726016 
  330000       330000    3104.4589    1904.0164    1200.4425    271.69631     114.8411    26965.561    0.6013048 
  332000       332000    3064.1469    1933.0408    1131.1062    275.83799   -1855.6493    27309.573    0.5937303 
  334000       334000    3211.3304    1976.0419    1235.2885     281.9741   -623.10121    27085.396   0.59864442 
  336000       336000    3143.4101    1878.6744    1264.7358     268.0801    235.99319    27212.994   0.59583745 
  338000       338000    3110.6601    1881.3159    1229.3442    268.45705    1337.4512    28360.499   0.57172904 
  340000       340000    3040.0061    1915.1792     1124.827     273.2892   -243.92197    26890.646   0.60297997 
  342000       342000    3065.1284    1885.8728    1179.2557    269.10729   -1297.2777     27559.12   0.58835408 
  344000       344000    3115.5763    1898.7348    1216.8415    270.94266   -662.68309    27151.693   0.59718268 
  346000       346000    3059.3747    1910.9934    1148.3813     272.6919   -159.46171    26886.716   0.60306811 
  348000       348000    3062.8399    1940.4259     1122.414    276.89182    713.70754    26135.577   0.62040034 
  350000       350000    3132.5316    1908.3792    1224.1523    272.31888   -249.91884    26902.839    0.6027067 
  352000       352000    3150.5246      1935.77    1214.7546    276.22744    1295.1931    26985.877    0.6008521 
  354000       354000    3078.5524    1934.0632    1144.4892    275.98389   -1501.2631    26240.015   0.61793108 
  356000       356000    3055.6527    1934.0955    1121.5572     275.9885   -393.37323    26319.474   0.61606554 
  358000       358000    3006.0747    1850.8168    1155.2579    264.10493   -613.99523    26583.753   0.60994101 
  360000       360000    3050.6772    1903.2942     1147.383    271.59326    1068.5509    26655.022   0.60831017 
  362000       362000    3076.3009    1907.2309      1169.07    272.15501    1788.2275    26342.452   0.61552816 
  364000       364000    3090.8789    1914.0617    1176.8172    273.12975   -1535.6219    25991.822   0.62383165 
  366000       366000    3035.1341    1918.0382    1117.0959    273.69718   -656.47611    26166.421   0.61966903 
  368000       368000      3058.19    1892.0306    1166.1594    269.98599     456.3182    26290.955   0.61673381 
  370000       370000    3083.3194    1901.2523    1182.0672    271.30189   -181.87068    26902.612   0.60271178 
  372000       372000    3031.1635    1887.4327    1143.7309    269.32988    1355.3481    26654.206   0.60832879 
  374000       374000     3017.527    1896.7304    1120.7967    270.65663    961.62022    25932.496   0.62525877 
  376000       376000    3082.3538     1944.639    1137.7148    277.49301    1672.7642    26285.958   0.61685105 
  378000       378000    3117.7228    1959.6818     1158.041    279.63958    845.07019    26758.906   0.60594858 
  380000       380000    3138.4932    1955.8602     1182.633    279.09424    354.66448    26781.538   0.60543651 
  382000       382000    3083.2493    1892.8631    1190.3862    270.10478    550.33941    26544.367   0.61084603 
  384000       384000    3059.6204    1880.1253    1179.4952    268.28714   -510.81684    26186.766   0.61918761 
  386000       386000    3038.7252    1926.8261    1111.8991    274.95118    8.0968567    26178.909   0.61937343 
  388000       388000    3132.7881    1916.7006    1216.0875    273.50631   -385.85753    26933.761   0.60201472 
  390000       390000    3071.8713    1866.4398    1205.4315    266.33427    696.16788    27063.368   0.59913166 
  392000       392000    3148.1387    1947.1087    1201.0299    277.84544   -1331.1188    26870.164    0.6034396 
  394000       394000    3009.9816    1840.8621    1169.1194    262.68443    287.03593    26602.256   0.60951676 
  396000       396000    3050.4303    1875.5433     1174.887    267.63331   -565.26043    27013.339   0.60024128 
  398000       398000    3078.3428    1894.2354    1184.1074     270.3006   -1420.1081    27025.265   0.59997638 
  400000       400000    3130.6786    1884.3225    1246.3561    268.88607   -125.42331    28187.495   0.57523809 
  402000       402000    3026.2413     1872.399    1153.8423    267.18463     -432.529    26951.693   0.60161419 
  404000       404000    3096.0897    1896.8694    1199.2203    270.67646   -534.61759    27022.632   0.60003485 
  406000       406000     3116.712    1983.0442    1133.6678     282.9733    783.62982    26449.446   0.61303821 
  408000       408000    3039.8934    1884.6299    1155.2635    268.92994   -1020.5192    26909.111    0.6025662 
  410000       410000    3121.1157    1946.2717     1174.844      277.726   -617.60554    26913.011   0.60247888 
  412000       412000    3042.5142     1900.201    1142.3132    271.15187   -356.87401    26881.546    0.6031841 
  414000       414000    3088.1516    1918.5063    1169.6453    273.76398   -663.80755    26850.424   0.60388323 
  416000       416000    3105.3224    1928.2702    1177.0522    275.15725   -1047.2758    27197.495     0.596177 
  418000       418000    3073.8742    1883.9545    1189.9198    268.83355   -85.498808    26414.174   0.61385682 
  420000       420000    3184.4163     1981.879    1202.5372    282.80704    1437.0178    27124.063   0.59779102 
  422000       422000    3067.5659    1911.9423    1155.6235    272.82732    1583.8259    26965.652   0.60130276 
  424000       424000    3056.8885    1832.8569    1224.0316    261.54212     1136.653    27714.647    0.5850524 
  426000       426000    2963.0761    1835.5254    1127.5507     261.9229    76.121336    26287.859   0.61680645 
  428000       428000    3113.5595    1934.5531    1179.0064    276.05379   -428.45272    26827.486   0.60439957 
  430000       430000    3042.3272    1870.7944    1171.5328    266.95566     351.9521    26667.695    0.6080211 
  432000       432000    3066.7185    1897.5036    1169.2149    270.76697   -741.11265    27074.909   0.59887629 
  434000       434000    3090.9707    1882.3014    1208.6693    268.59766    1879.7294     26732.41   0.60654916 
  436000       436000    3142.2303    1913.5964    1228.6339    273.06335   -641.41808    27092.039   0.59849762 
  438000       438000    3025.4837    1861.4785    1164.0052    265.62631   -1988.6508    27386.338   0.59206606 
  440000       440000    3182.6595    1919.6315    1263.0279    273.92454   -237.94961    27434.828    0.5910196 
  442000       442000    3087.3639    1918.5155    1168.8484    273.76529   -565.89496    27001.012   0.60051531 
  444000       444000    3131.4406    1917.9516     1213.489    273.68482   -94.486708    27742.896   0.58445668 
  446000       446000    3088.4645    1888.5298    1199.9347    269.48643    -213.0752    27281.907    0.5943324 
  448000       448000    3073.8336    1927.1494    1146.6841    274.99732    903.93216    27044.785   0.59954334 
  450000       450000    3192.3737    1926.8715    1265.5022    274.95766   -1307.6921    27479.827   0.59005179 
  452000       452000    3008.7749    1865.7691    1143.0058    266.23857   -651.66753    26634.125   0.60878746 
  454000       454000    3058.9249    1880.3671    1178.5578    268.32164     1180.062    26307.635   0.61634278 
  456000       456000    3169.1141    1942.5146    1226.5995    277.18988    667.69752    27188.375   0.59637699 
  458000       458000    3103.7842    1905.3237    1198.4605    271.88286    451.26647    27323.591    0.5934257 
  460000       460000    3113.2228    1934.8659    1178.3569    276.09844    938.97933    26828.547   0.60437568 
  462000       462000    3006.0458    1873.5294    1132.5164    267.34593    979.67205    26700.802   0.60726719 
  464000       464000    2948.2078    1842.0935    1106.1143    262.86014    1106.2743    26022.648   0.62309266 
  466000       466000    3026.2086    1906.2479    1119.9607    272.01474    454.62573    26184.824   0.61923352 
  468000       468000    3184.7775    1926.1251    1258.6524    274.85115    787.04644    27151.921   0.59717767 
  470000       470000    3108.1204    1964.2597    1143.8608    280.29282   -287.33212    26563.416   0.61040798 
  472000       472000    3057.0741    1865.6121     1191.462    266.21617   -33.347043    26408.695   0.61398417 
  474000       474000      3043.25    1885.8067    1157.4433    269.09787    2058.0169    26254.594   0.61758795 
  476000       476000    3052.1165    1872.6638    1179.4527    267.22242    679.59013    26503.734   0.61178251 
  478000       478000    3106.0074     1894.056    1211.9514    270.27501    347.43399    26188.438   0.61914806 
  480000       480000    3152.5297    1914.1522    1238.3776    273.14266    197.84979    27527.942   0.58902046 
  482000       482000    3075.1361    1890.4375    1184.6986    269.75866   -117.32991    27104.412   0.59822441 
  484000       484000    2956.3389    1844.0865    1112.2524    263.14454   -574.62839    26708.355   0.60709546 
  486000       486000     3148.895    1956.5025    1192.3925     279.1859    523.39941    26717.911   0.60687832 
  488000       488000    3135.2117    1920.8088    1214.4028    274.09254   -260.05529    26803.753   0.60493473 
  490000       490000    3011.4349    1889.6104    1121.8245    269.64064   -420.76281    26265.219   0.61733811 
  492000       492000    3127.6733    1900.8188    1226.8545    271.24004     62.77532     26809.68   0.60480098 
  494000       494000    3080.8812    1884.0909    1196.7903    268.85301    133.32691     27276.83   0.59444301 
  496000       496000    3032.4537    1833.1253    1199.3284    261.58041   -648.61843     27485.53   0.58992936 
  498000       498000    3167.9576    1926.9745    1240.9832    274.97235    426.56001     27411.02   0.59153292 
  500000       500000    3114.5797     1918.833    1195.7467    273.81059   -427.43026    26798.358   0.60505651 
  502000       502000    3125.7728     1982.118    1143.6548    282.84113   -1706.9771    26266.396   0.61731046 
  504000       504000    3054.3346    1937.1837    1117.1509    276.42917    1331.3157    26287.276   0.61682014 
  506000       506000    3167.0866    1963.3654    1203.7212     280.1652    252.23002    26852.997   0.60382537 
  508000       508000    3113.1669     1924.653    1188.5139    274.64109   -439.31804    27044.405   0.59955176 
  510000       510000    3013.1337     1882.339    1130.7947    268.60303   -1477.1663     25900.99   0.62601934 
  512000       512000    3086.8932    1886.2755    1200.6178    269.16475    2140.4767    26137.186   0.62036216 
  514000       514000    3153.0621    1929.5577    1223.5044    275.34097    323.72481    26826.515   0.60442143 
  516000       516000    3095.7664    1916.0928    1179.6736    273.41958    912.23834    26693.405   0.60743546 
  518000       518000    3088.8732     1886.951    1201.9222    269.26115   -147.33104    26707.996   0.60710361 
  520000       520000    3137.3564    1988.0547    1149.3017    283.68828    389.94471    26212.923   0.61856973 
  522000       522000    3224.3194    1983.5307    1240.7888    283.04272    329.19802    26641.355   0.60862223 
  524000       524000    3107.2935    1874.8517    1232.4418    267.53462   -811.71401    26453.118    0.6129531 
  526000       526000    3074.6738    1881.2559    1193.4178    268.44848   -306.59525    26288.797   0.61678445 
  528000       528000    3103.5466    1876.4935    1227.0532    267.76889    951.18284    26507.052   0.61170594 
  530000       530000    3007.7718    1870.3836    1137.3883    266.89703    116.64906    26732.299   0.60655168 
  532000       532000    3111.0922    1931.8156    1179.2766    275.66316    1196.5635     26512.09   0.61158969 
  534000       534000    3094.2534    1930.5618    1163.6917    275.48425   -4.0104035    26703.643   0.60720258 
  536000       536000    3087.5981      1905.75    1181.8481    271.94369    606.32786    25964.933   0.62447767 
  538000       538000     3034.318    1875.4232    1158.8948    267.61618   -1363.4613    26488.561   0.61213296 
  540000       540000    3070.0252    1914.4788    1155.5464    273.18926   -1229.8608    26311.545   0.61625118 
  542000       542000    3143.8549    1909.7407    1234.1142    272.51316   -390.48321    27334.096   0.59319762 
  544000       544000    3176.1492    1953.4043    1222.7449     278.7438   -517.62432    26808.535   0.60482683 
  546000       546000    3184.4096    1940.2972    1244.1125    276.87345     1138.324     27176.99   0.59662682 
  548000       548000    3094.3438     1907.585    1186.7588    272.20554    806.74899     26297.74    0.6165747 
  550000       550000    3111.7115    1885.3151    1226.3965    269.02771    2086.4505    26716.734   0.60690505 
  552000       552000    3045.1255    1891.3629    1153.7626    269.89071    180.47829    27110.053   0.59809994 
  554000       554000    3080.7823    1913.7437    1167.0386    273.08437   -754.56879    26828.435   0.60437819 
  556000       556000    3059.3634    1901.7921    1157.5713    271.37892    1725.5646    26195.724   0.61897586 
  558000       558000    3125.6161    1904.3409    1221.2752    271.74263    1387.2907    26737.048   0.60644394 
  560000       560000    3082.7688    1877.3016    1205.4673    267.88421    1392.9033    26695.486   0.60738811 
  562000       562000     3054.557    1903.1749    1151.3822    271.57623    1150.2691    26393.607   0.61433517 
  564000       564000    3072.3439    1912.3788    1159.9651    272.88961   -453.58581     26733.34   0.60652806 
  566000       566000    3036.0367    1840.2242    1195.8125     262.5934   -1480.4297    26876.385   0.60329992 
  568000       568000    3083.5847    1875.4218    1208.1629    267.61597    -482.7338    27397.977   0.59181452 
  570000       570000    3124.0393    1898.4171    1225.6223    270.89731   -433.75908    26646.546   0.60850367 
  572000       572000    3050.3092    1888.4343     1161.875     269.4728    844.24591    26547.275    0.6107791 
  574000       574000    3004.8457    1893.4882    1111.3575    270.19399   -845.21894     26414.47   0.61384995 
  576000       576000    3113.9638    1951.8876    1162.0762    278.52737    160.08811    26809.189   0.60481205 
  578000       578000    3119.4191    1922.3017    1197.1175    274.30556    853.43494    27237.189   0.59530817 
  580000       580000    3097.1522    1870.5984    1226.5538    266.92768    515.34563    27199.466   0.59613379 
  582000       582000    3047.6846    1861.7295    1185.9551    265.66213   -331.14764    27191.442    0.5963097 
  584000       584000     3049.519    1873.4359    1176.0832    267.33258    1000.2395    27271.372   0.59456197 
  586000       586000    3022.1181    1866.9991     1155.119    266.41408    444.31668    26918.683   0.60235194 
  588000       588000    3136.3732    1897.6507    1238.7225    270.78796   -371.27503    27568.768    0.5881482 
  590000       590000     3058.611    1871.7153    1186.8957    267.08707    795.32465    26932.911   0.60203372 
  592000       592000    3078.3283    1924.5613     1153.767      274.628    772.82103    26821.709   0.60452974 
  594000       594000    3059.7929    1899.5127    1160.2802    271.05366    128.17976    26356.041    0.6152108 
  596000       596000     3137.246    1953.7508    1183.4952    278.79324    514.92375    26770.281   0.60569109 
  598000       598000    3130.0168    1907.2152    1222.8017    272.15277   -1070.5808    27191.002   0.59631935 
  600000       600000    3080.4925     1925.525    1154.9674    274.76552   -591.50636    26061.726   0.62215837 
  602000       602000    3073.1847    1872.4004    1200.7843    267.18483   -1163.3759    26472.702   0.61249966 
  604000       604000    3115.0576    1908.3744    1206.6832    272.31819      788.546    27075.525   0.59886266 
  606000       606000    3161.0016     1957.142    1203.8596    279.27715     201.9767    26312.001   0.61624052 
  608000       608000    3053.7876    1913.1053    1140.6823    272.99327    1220.8261    26357.905   0.61516728 
  610000       610000    3095.1353    1884.3295    1210.8058    268.88707    553.00229    27304.813   0.59383379 
  612000       612000    3028.1735    1905.1512    1123.0223    271.85824    1697.4807    26634.079   0.60878849 
  614000       614000    3070.9736    1913.6108    1157.3628     273.0654   -417.08003    26122.054   0.62072151 
  616000       616000    3048.6561    1881.6372     1167.019    268.50288     218.3856    26667.623   0.60802273 
  618000       618000     3158.388    1926.9002    1231.4879    274.96175    2506.4356    27029.649   0.59987909 
  620000       620000    3174.7598    1957.5959    1217.1639    279.34192    -1000.898    27157.702   0.59705056 
  622000       622000     3110.417    1913.6904    1196.7266    273.07676    -26.29982     26527.71   0.61122957 
  624000       624000    3072.7472    1907.2943    1165.4529    272.16406    792.90635    26595.823    0.6096642 
  626000       626000    3131.9312     1913.719    1218.2123    273.08084    838.96636    27020.949   0.60007222 
  628000       628000    3187.4994     1984.381    1203.1184    283.16406     915.2111    26669.203    0.6079867 
  630000       630000    3034.1777     1858.557    1175.6207    265.20942    711.44746    26671.024   0.60794519 
  632000       632000    3100.4386    1950.0527    1150.3859    278.26553   -1074.0611    26196.566   0.61895596 
  634000       634000    2973.3072    1828.4552     1144.852    260.91401    646.44173     26971.81   0.60116547 
  636000       636000    3209.9794     1980.806    1229.1734    282.65392   -783.45813    26435.745   0.61335593 
  638000       638000     3105.532    1927.8797    1177.6523    275.10153    920.29151    25931.234   0.62528921 
  640000       640000     3115.968    1967.3059    1148.6621     280.7275     471.5475    25950.711    0.6248199 
  642000       642000    3072.5254    1929.5515     1142.974    275.34008    421.32448     26451.87   0.61298203 
  644000       644000    3115.0506    1894.3648    1220.6858    270.31907   -876.28153    26861.788   0.60362776 
  646000       646000    3080.3213    1852.6973     1227.624    264.37327   -1430.6335    27191.413   0.59631035 
  648000       648000     3045.185    1886.5644    1158.6206    269.20598   -786.34341    27024.048    0.6000034 
  650000       650000    3095.5033    1871.8301    1223.6732    267.10345     992.1998    27478.607   0.59007798 
  652000       652000     3203.422    1974.7506    1228.6714    281.78984    -878.5434    26835.165   0.60422661 
  654000       654000    3037.1587    1853.9753    1183.1834    264.55564   -480.74012     27059.44   0.59921863 
  656000       656000     3076.486     1881.029    1195.4569     268.4161   -1895.7081    27002.985   0.60047144 
  658000       658000     3083.921    1858.5907    1225.3303    265.21424   -1133.6471    26669.601   0.60797762 
  660000       660000    3115.7857    1949.6159    1166.1697    278.20321    69.191525     26652.89   0.60835884 
  662000       662000     3077.423    1868.0898    1209.3331    266.56973    867.37183    27467.395   0.59031885 
  664000       664000    3075.0565    1946.0922    1128.9643    277.70038   -363.11715    26347.704   0.61540547 
  666000       666000    3097.8081    1910.4366    1187.3715    272.61246   -479.92937    26458.325   0.61283248 
  668000       668000    3121.1817    1905.2728    1215.9089    271.87561    688.53459    26956.683   0.60150282 
  670000       670000    3101.6381    1954.5925    1147.0456    278.91335   -754.45567    26878.765    0.6032465 
  672000       672000     3139.083    1884.8303    1254.2527    268.95854    575.66231    27661.031   0.58618643 
  674000       674000    3052.7633    1876.4987    1176.2646    267.76964    1397.3673    26495.937   0.61196254 
  676000       676000    3107.3331    1939.1718    1168.1613    276.71287    1084.9428    27110.727   0.59808506 
  678000       678000    3132.3863     1945.212    1187.1743    277.57478   -554.20009    26965.886   0.60129755 
  680000       680000    3073.1704    1913.1774     1159.993    273.00356    74.709184    27751.847   0.58426816 
  682000       682000    3144.3982     1907.704    1236.6943    272.22252    1405.5073    27535.382   0.58886129 
  684000       684000     3162.112    1946.9883    1215.1237    277.82826   -1176.3722    27237.666   0.59529773 
  686000       686000    3097.2608    1882.6394    1214.6214     268.6459    2111.9818    26786.526   0.60532378 
  688000       688000    3091.2071    1931.4101     1159.797    275.60531   -535.90891    26582.194   0.60997677 
  690000       690000    3118.0018     1918.381    1199.6208     273.7461    1310.9612    26653.979   0.60833397 
  692000       692000    3090.6344    1942.3489    1148.2855    277.16623    550.83934    27021.668   0.60005626 
  694000       694000    3149.7473    1933.3046    1216.4427    275.87564    235.34934    27255.923   0.59489899 
  696000       696000    3147.0337    1971.9883    1175.0455    281.39566   -211.15131    26357.609    0.6151742 
  698000       698000    3151.5874    1957.9112    1193.6762    279.38691    712.44004    25920.057   0.62555885 
  700000       700000    3029.7383    1887.1675    1142.5708    269.29204   -128.47183    26890.445   0.60298447 
  702000       702000    3136.1586    1902.7866     1233.372    271.52083   -598.87649    26557.497   0.61054402 
  704000       704000    3036.9252    1924.0994    1112.8259    274.56209   -13.935579    25933.855   0.62522602 
  706000       706000    3009.2804    1877.2107    1132.0696    267.87125   -798.91295    25650.109   0.63214237 
  708000       708000    3085.2296    1922.8018    1162.4277    274.37693   -1539.4073    25984.999   0.62399544 
  710000       710000    3017.3483    1879.8798    1137.4685    268.25211   -480.40759     26134.76   0.62041974 
  712000       712000    3114.2484     1935.176    1179.0723    276.14269   -698.63338    26344.668   0.61547637 
  714000       714000    3124.3179    1931.7177    1192.6001     275.6492    2181.4146    26152.941   0.61998844 
  716000       716000    3007.4317     1835.128    1172.3037     261.8662    538.95165    26264.951   0.61734442 
  718000       718000      3052.31    1878.9194    1173.3906    268.11507   -575.50574    26327.916     0.615868 
  720000       720000    3096.7049    1892.6549      1204.05    270.07508    677.05132    26215.064   0.61851922 
  722000       722000    3130.9706    1957.9838    1172.9868    279.39727   -1785.8345    27007.386   0.60037358 
  724000       724000    3041.6239    1879.4549     1162.169    268.19148    1502.6269    26346.004   0.61544517 
  726000       726000    3089.0578    1909.8067    1179.2511    272.52258     606.1753    26589.884   0.60980035 
  728000       728000    3100.9897    1923.5077    1177.4821    274.47766    785.44622    27372.772   0.59235947 
  730000       730000     3074.729    1904.0513    1170.6777     271.7013    643.54413    27007.663   0.60036742 
  732000       732000    3045.1329    1885.1529      1159.98    269.00457    430.66035    26780.304   0.60546441 
  734000       734000    3044.9911    1889.7171     1155.274    269.65585   -1308.1512    26901.732   0.60273149 
  736000       736000    3118.4615     1916.432    1202.0295    273.46798    684.36386    27559.401    0.5883481 
  738000       738000    3092.8559    1902.2854    1190.5705    271.44931    2145.3648    26768.885   0.60572269 
  740000       740000    3124.0187    1991.1198    1132.8989    284.12566   -616.52745    26985.938   0.60085074 
  742000       742000     3089.948    1900.0225    1189.9255    271.12641    1669.4316    27322.652   0.59344608 
  744000       744000     3066.119    1861.7699    1204.3491     265.6679    787.48434    27293.134   0.59408792 
  746000       746000    3175.7215    1981.3582    1194.3634    282.73271   -523.39476    27194.236   0.59624845 
  748000       748000    3119.8624    1961.9676    1157.8948    279.96575   -97.674301    27141.158   0.59741448 
  750000       750000    2984.0706    1850.1393    1133.9313    264.00825    381.59963    26913.563   0.60246654 
  752000       752000    3161.4073     1973.314    1188.0933    281.58484   -914.79017    26606.047    0.6094299 
  754000       754000    3108.9076    1904.5209    1204.3867    271.76831    81.172787    26925.655   0.60219597 
  756000       756000    3106.8004    1906.5632    1200.2373    272.05973    -232.0243    26747.837   0.60619932 
  758000       758000    3111.6333    1880.5662    1231.0671    268.35006   -55.856566    26943.334   0.60180084 
  760000       760000    3120.2005    1903.8179    1216.3825      271.668   -252.67477    27609.288     0.587285 
  762000       762000    3198.5323     1954.116    1244.4163    278.84535    319.60515    27583.296   0.58783841 
  764000       764000    3031.4108    1864.2761    1167.1347    266.02552   -1203.7891    27308.674   0.59374985 
  766000       766000    3143.2921    1921.6892    1221.6029    274.21816   -546.80079    27246.633   0.59510183 
  768000       768000    3137.5972    1938.8248    1198.7724    276.66336    105.37724    27364.943   0.59252894 
  770000       770000    3077.4157    1942.7488    1134.6669    277.22329    785.07235    27031.355   0.59984123 
  772000       772000    3106.6102    1933.9012     1172.709    275.96077    763.65465    26363.112   0.61504579 
  774000       774000    3051.4208    1873.3159    1178.1049    267.31547     253.7057    27221.126   0.59565944 
  776000       776000     3098.381    1953.7897    1144.5913    278.79879   -440.02082    26351.471   0.61531748 
  778000       778000    3118.3759     1925.722    1192.6539    274.79363    813.93502    26888.648   0.60302478 
  780000       780000     3127.056    1949.2349     1177.821    278.14884     150.3403    26586.172    0.6098855 
  782000       782000    3017.3169    1877.4742    1139.8427    267.90885    295.72493    27035.125   0.59975758 
  784000       784000    3149.8865    1952.1676    1197.7189    278.56732    1244.7659    26283.663   0.61690491 
  786000       786000    3023.6323    1890.4424    1133.1898    269.75936   -298.03228    26542.014   0.61090016 
  788000       788000     2954.764    1817.6804    1137.0835    259.37649    506.30668    25820.072   0.62798123 
  790000       790000    3015.3365    1852.6325    1162.7039    264.36403    1465.3259    26028.928   0.62294234 
  792000       792000    3091.7299    1931.1715    1160.5584    275.57125    161.88207    26120.746   0.62075261 
  794000       794000    3037.6531    1853.0006    1184.6525    264.41655   -1618.4146    26791.136   0.60521961 
  796000       796000    3066.2142     1907.299    1158.9152    272.16473   -286.48011    26366.817   0.61495937 
  798000       798000    3068.6658    1910.4477    1158.2181    272.61405   -899.71997    26958.026   0.60147285 
  800000       800000    3106.5644    1913.6401    1192.9243    273.06958    684.77049    26721.625   0.60679398 
  802000       802000    3124.4749     1966.915    1157.5598    280.67173    1061.0972    26173.228   0.61950787 
  804000       804000    3042.5391    1829.8026    1212.7365    261.10628   -173.43437    27263.128   0.59474177 
  806000       806000    3119.2932    1920.7844    1198.5088    274.08906    270.00046    26247.565   0.61775333 
  808000       808000    3135.1664    1925.6034    1209.5629    274.77671   -1657.9498    26851.036   0.60386948 
  810000       810000    3136.4556     1936.123    1200.3327    276.27781    1013.0603    26782.839    0.6054071 
  812000       812000    3073.2272    1906.5996    1166.6276    272.06493   -689.02634    26577.311   0.61008885 
  814000       814000    3082.9727    1917.9401    1165.0326    273.68318    843.46245    25925.319   0.62543188 
  816000       816000    3090.4607     1914.419    1176.0417    273.18073    209.64522    26834.093   0.60425076 
  818000       818000    3116.9026    1955.6845    1161.2181    279.06916   -744.44591    26740.709   0.60636091 
  820000       820000    3158.1426    1984.1054    1174.0372    283.12473   -115.40301    26359.813   0.61512276 
  822000       822000    3049.3988    1892.9155    1156.4833    270.11226   -765.79086    26338.716   0.61561547 
  824000       824000    3164.4614    1949.5451    1214.9164     278.1931   -250.38902    27161.181   0.59697408 
  826000       826000    2996.5062    1878.2897    1118.2165    268.02521   -1272.4879    26221.562   0.61836594 
  828000       828000    3150.8181    1929.2842    1221.5339    275.30194   -715.68871    27092.487   0.59848774 
  830000       830000    3028.4309    1869.1333    1159.2976    266.71862   -82.438854    26986.172   0.60084553 
  832000       832000    3130.1228    1931.9071    1198.2157    275.67622   -1508.1244    27208.241   0.59594154 
  834000       834000    3103.7136    1920.6497    1183.0639    274.06984    439.95904    26516.937   0.61147791 
  836000       836000    3058.9929    1891.5177    1167.4752     269.9128    44.133046    26789.799   0.60524981 
  838000       838000    3075.8394    1861.7627    1214.0767    265.66687   -2222.4356    27083.764   0.59868049 
  840000       840000    3130.3515    1914.4788    1215.8727    273.18926   -1097.1748    27057.359   0.59926473 
  842000       842000    3059.1102    1871.6872     1187.423    267.08306    7.8447027    26444.555    0.6131516 
  844000       844000    3078.7408    1914.0669    1164.6739    273.13048    246.98149    26475.169   0.61244259 
  846000       846000    3095.8095    1904.0547    1191.7548    271.70179    2227.7527    26927.068   0.60216438 
  848000       848000    3034.3349    1875.3684    1158.9666    267.60835    573.82878    26321.772   0.61601176 
  850000       850000    3120.0937    1880.4458     1239.648    268.33287    338.45897    26614.939    0.6092263 
  852000       852000    3038.8442    1868.5332     1170.311    266.63299    627.06983        25726   0.63027757 
  854000       854000    3069.8865    1916.0031    1153.8833    273.40678   -549.33092    26743.478   0.60629815 
  856000       856000     3098.111    1888.6633    1209.4477    269.50549     187.0848    26654.451    0.6083232 
  858000       858000    3168.2547    1910.6521    1257.6026    272.64321    770.10005    27338.929   0.59309276 
  860000       860000    3120.5637    1956.1538    1164.4099    279.13614      1305.44    26814.932   0.60468254 
  862000       862000    3087.4266    1904.7918    1182.6347    271.80697   -1379.3309     26487.74   0.61215192 
  864000       864000    3137.8541    1959.1829    1178.6712    279.56838    516.92224    25972.801    0.6242885 
  866000       866000    3034.2996     1840.777    1193.5226    262.67229    1358.0983    26477.163   0.61239646 
  868000       868000    3166.8553     1944.483    1222.3723    277.47075   -948.97447    27054.791   0.59932162 
  870000       870000    3113.2884    1906.4105    1206.8779    272.03795    763.29689    26726.195   0.60669021 
  872000       872000    3215.6687    1973.9404    1241.7283    281.67423   -330.42304    27268.932   0.59461518 
  874000       874000     3056.786    1897.8436    1158.9424    270.81549   -604.01127    27045.409   0.59952952 
  876000       876000    3045.4241    1877.2895    1168.1346    267.88248    296.26991    26482.814   0.61226578 
  878000       878000    2975.5801    1836.4872    1139.0928    262.06015   -877.11794    26898.007   0.60281496 
  880000       880000    3042.8541    1899.1774    1143.6767     271.0058    -1679.829    26277.491   0.61704982 
  882000       882000    3076.3555    1911.7228    1164.6327    272.79599    2000.8074    26859.847   0.60367138 
  884000       884000    3038.3091    1886.6545    1151.6546    269.21884    280.09509    26356.102   0.61520938 
  886000       886000    3084.5273     1933.228    1151.2993    275.86471   -63.559344    26863.283   0.60359416 
  888000       888000    3137.2893    1954.6155    1182.6739    278.91662   -854.43626    26576.739   0.61010198 
  890000       890000    3035.3023    1905.6145    1129.6878    271.92437   -755.38643    26236.031   0.61802493 
  892000       892000    3109.6114    1955.7548    1153.8566    279.07921    -629.8116    26527.562     0.611233 
  894000       894000    3133.3319    1907.6301    1225.7018    272.21198   -622.62321    26865.569    0.6035428 
  896000       896000    3116.4141    1888.6152    1227.7989    269.49862    124.19143    26814.766   0.60468628 
  898000       898000    3069.0399    1872.4012    1196.6387    267.18494    -1161.976    27411.216    0.5915287 
  900000       900000     3074.773    1898.7835    1175.9895     270.9496    -1713.063     26753.97   0.60606038 
  902000       902000    2994.1634    1874.0157    1120.1476    267.41533    222.18356    26458.372   0.61283138 
  904000       904000    3126.2566     1922.657    1203.5996    274.35626   -796.07369    26636.632   0.60873015 
  906000       906000    3119.0534    1939.0995    1179.9539    276.70255     1003.351    26713.159   0.60698627 
  908000       908000    3001.9983    1830.2812    1171.7171    261.17457    1382.0834    26509.277   0.61165459 
  910000       910000     3103.762    1935.1426    1168.6194    276.13791   -451.61584    26643.166   0.60858085 
  912000       912000    3143.6108    1974.5087    1169.1021    281.75532    530.92782    26560.236   0.61048105 
  914000       914000    3070.0545     1900.992    1169.0625    271.26474    2253.1228    26246.187   0.61778577 
  916000       916000    3041.2869      1869.45    1171.8369    266.76382    379.38116    26657.739   0.60824817 
  918000       918000    3025.0796    1909.3367    1115.7429     272.4555    144.95461    26348.717   0.61538181 
  920000       920000    3126.6224     1925.948    1200.6744    274.82588   -256.12072        26948   0.60169663 
  922000       922000     3072.181    1891.5314    1180.6496    269.91475    686.85363    26413.883   0.61386358 
  924000       924000    3182.8602    1920.7083    1262.1519    274.07819     1054.016    27228.584   0.59549629 
  926000       926000    3042.1969    1905.9514    1136.2455    271.97243    512.25042    25898.031   0.62609087 
  928000       928000    3162.9061    1943.5143    1219.3918    277.33252   -146.58039    26698.236   0.60732556 
  930000       930000    3070.4915    1955.2404    1115.2511     279.0058    255.04208    26571.099   0.61023147 
  932000       932000    3190.6008    1963.6179    1226.9829    280.20124   -256.06759    26909.007   0.60256853 
  934000       934000    3045.3166    1907.7827    1137.5339    272.23375   -2166.5601    25986.496    0.6239595 
  936000       936000     3135.428    1928.5782    1206.8498     275.2012   -16.190928    26448.087   0.61306972 
  938000       938000    2980.7179    1902.5926    1078.1253    271.49314    1885.8287    25575.199   0.63399393 
  940000       940000    3050.0816    1910.9263    1139.1552    272.68234    1730.7539    26106.496   0.62109144 
  942000       942000    3119.0514    1914.0209    1205.0305    273.12392    29.690659    26272.667   0.61716312 
  944000       944000    3120.4094    1932.0538    1188.3556    275.69715    1415.3783    25510.224   0.63560873 
  946000       946000    3093.8164    1933.7447    1160.0717    275.93844    1661.4398    26613.846   0.60925132 
  948000       948000    3069.3504    1888.5743    1180.7761    269.49278   -291.51948    27349.005   0.59287426 
  950000       950000    3112.2795    1912.4357    1199.8438    272.89772    574.64019    27068.845   0.59901045 
  952000       952000    3057.9518    1906.2857    1151.6661    272.02014     449.2226    26275.181   0.61710406 
  954000       954000    3081.3713    1904.8179    1176.5534    271.81069   -334.66025    25942.547   0.62501655 
  956000       956000    3130.1803    1926.8945    1203.2857    274.96094   -858.13664    26876.574   0.60329567 
  958000       958000    3086.9249    1850.7743    1236.1506    264.09887   -806.63479    27196.123   0.59620708 
  960000       960000     3101.667    1910.4848    1191.1822    272.61933    1463.4283    27138.325   0.59747685 
  962000       962000    3050.5194    1881.0634     1169.456      268.421    922.19576    26832.867   0.60427836 
  964000       964000    3110.8632    1939.5951    1171.2681    276.77327    1912.8704    26752.695   0.60608926 
  966000       966000    3019.7124    1872.4325    1147.2799    267.18941   -606.10788    26547.823   0.61076649 
  968000       968000    3046.5548    1850.6718     1195.883    264.08424     1008.747     27011.94   0.60027236 
  970000       970000    3040.7217    1868.8368     1171.885    266.67631    2672.8898     27044.73   0.59954457 
  972000       972000    3184.1029    1928.1465    1255.9564     275.1396   -671.48502    27395.571   0.59186651 
  974000       974000    3253.2253    1959.7039    1293.5214    279.64273   -1105.0108    28055.975   0.57793469 
  976000       976000     3220.432    1977.1811    1243.2509    282.13666     431.9966    27600.433   0.58747343 
  978000       978000    3044.7825    1872.2128    1172.5697    267.15806   -700.35546    26909.378   0.60256022 
  980000       980000    3152.9182     1918.818    1234.1002    273.80846      436.855    27533.944   0.58889206 
  982000       982000    3187.2055    1944.7991    1242.4064    277.51586    1879.2098    27856.622   0.58207061 
  984000       984000       2998.5    1850.4896    1148.0104    264.05823   -699.63908    27902.634   0.58111075 
  986000       986000    3095.2543    1920.6235    1174.6308    274.06609    -636.9823    27280.329   0.59436676 
  988000       988000    3075.6268    1891.3928     1184.234    269.89498    186.33609     26940.24   0.60186996 
  990000       990000    3094.1741    1922.5054    1171.6687    274.33464   -685.79145    26909.862    0.6025494 
  992000       992000    3137.6416     1889.311    1248.3306    269.59791    363.61847    28308.446   0.57278032 
  994000       994000    3150.3109    1904.5574    1245.7535    271.77352    355.01434    28129.646   0.57642109 
  996000       996000    3035.3798    1931.8638     1103.516    275.67004   -691.71672    26578.169   0.61006916 
  998000       998000    3144.7999    1903.7212    1241.0787    271.65419     1371.306     27092.99   0.59847662 
 1000000      1000000    3145.1991    1910.2726    1234.9265    272.58906   -981.43852    27098.471   0.59835557 
 1002000      1002000    3162.7547    1979.5186    1183.2361    282.47021    1600.7545    27091.476   0.59851006 
 1004000      1004000    3163.4883    1929.9471    1233.5413    275.39653    486.91051    27550.613   0.58853576 
 1006000      1006000    3045.3596    1851.7105    1193.6491    264.23245   -1124.0106    27420.804   0.59132187 
 1008000      1008000    3087.1665    1891.2122    1195.9543    269.86921    1438.1227    26916.729   0.60239568 
 1010000      1010000     3018.148    1894.5604    1123.5877    270.34698    413.09089     26949.46   0.60166403 
 1012000      1012000    3061.4366     1941.215    1120.2217    277.00442   -130.05863    27118.441   0.59791493 
 1014000      1014000    3118.4583     1892.103    1226.3553    269.99632   -340.00309    26632.552   0.60882341 
 1016000      1016000    3102.0878     1955.522    1146.5658    279.04598    285.01646    27255.797   0.59490173 
 1018000      1018000    3153.6669    1918.6985    1234.9683     273.7914   -513.79427    27283.269   0.59430271 
 1020000      1020000    3108.5315    1890.1012    1218.4303    269.71067    1096.8406    26678.366   0.60777789 
 1022000      1022000    3090.5468    1901.4863    1189.0606    271.33528   -61.897774    27606.546   0.58734335 
 1024000      1024000    3063.8401    1897.5169    1166.3233    270.76886    2116.8583     26407.47   0.61401267 
 1026000      1026000    3165.1179    1928.3501    1236.7679    275.16865    1089.7217    27246.063   0.59511426 
 1028000      1028000    3073.6217    1906.0701    1167.5516    271.98938    1258.2526    26301.964   0.61647566 
 1030000      1030000    3136.5714    1986.0903    1150.4811    283.40797   -126.42154    27566.352   0.58819974 
 1032000      1032000    3103.2966    1932.8182    1170.4784    275.80623   -1521.6634    26567.216   0.61032066 
 1034000      1034000    3106.7948    1932.2072    1174.5877    275.71904     -77.3749    26535.322   0.61105423 
 1036000      1036000    3041.1226    1897.1809    1143.9418    270.72091   -356.81994    26226.343   0.61825322 
 1038000      1038000    3094.4692    1915.6757    1178.7935    273.36006    514.79003    26817.397   0.60462695 
 1040000      1040000    3087.8393    1889.3908    1198.4485     269.6093    12.608457    26681.927   0.60769676 
 1042000      1042000    3156.4049    1931.8895    1224.5154    275.67371   -209.25888    26997.861    0.6005854 
 1044000      1044000    3043.1618    1875.5415    1167.6204    267.63305    1265.7259    27268.033   0.59463478 
 1046000      1046000    3138.8578    1922.0136    1216.8442    274.26445    625.35346    27666.776    0.5860647 
 1048000      1048000     3135.458    1866.0159     1269.442    266.27379    274.05674    28221.592    0.5745431 
 1050000      1050000     3083.394    1912.6347    1170.7593    272.92611    544.77352    26459.742   0.61279965 
 1052000      1052000    2982.5334    1890.9655     1091.568      269.834   -4.6006356    26904.823   0.60266225 
 1054000      1054000    3091.9601    1878.8115    1213.1486    268.09967    1551.5006    27808.275   0.58308259 
 1056000      1056000    3136.5803    1936.4606    1200.1197    276.32599    826.26686     26948.07   0.60169507 
 1058000      1058000    3165.8036    1998.9538    1166.8498    285.24354    757.27467     27241.22   0.59522007 
 1060000      1060000    3057.4241    1844.4816    1212.9425    263.20092   -470.07857    27460.997   0.59045638 
 1062000      1062000    3107.4363    1951.9778    1155.4585    278.54024     1860.972    26459.053   0.61281563 
 1064000      1064000    3071.9899    1908.1749     1163.815    272.28972    957.90997    26558.148   0.61052905 
 1066000      1066000    3013.1208    1860.7872    1152.3336    265.52766    1790.9009    27403.769   0.59168944 
 1068000      1068000    3082.2144    1939.4435    1142.7708    276.75164    949.57284    27098.558   0.59835364 
 1070000      1070000    3080.1504    1936.8928    1143.2576    276.38766    423.72626    27253.647   0.59494866 
 1072000      1072000    3062.3881    1881.0043    1181.3838    268.41257    632.11278    27374.706   0.59231763 
 1074000      1074000    3095.7101    1943.0021     1152.708    277.25944    -10.12948     26879.48   0.60323046 
 1076000      1076000    3044.1364     1907.013    1137.1234    272.12393    -71.59993    26968.129   0.60124754 
 1078000      1078000    3047.7766    1903.3874    1144.3891    271.60657    642.97089    26308.751   0.61631663 
 1080000      1080000    3090.7418    1910.3465    1180.3953     272.5996     25.43863    26980.494   0.60097197 
 1082000      1082000     3031.197    1869.1187    1162.0783    266.71654   -744.30035    26522.834   0.61134195 
 1084000      1084000    3011.8905     1830.313    1181.5775    261.17911   -1234.8124    26635.746   0.60875039 
 1086000      1086000    3145.2175    1927.6648    1217.5527    275.07086    573.72861    26852.588   0.60383457 
 1088000      1088000    3108.6281    1884.0008    1224.6273    268.84016    -127.3401    27810.608   0.58303367 
 1090000      1090000    3092.9409    1895.4845    1197.4563    270.47885   -702.93245    27152.708   0.59716035 
 1092000      1092000    3120.3532      1906.24    1214.1132    272.01363   -117.11594    27749.278   0.58432227 
 1094000      1094000    3025.3533    1861.0292    1164.3241     265.5622    1770.4678    26731.647   0.60656648 
 1096000      1096000    3133.2551     1883.153    1250.1021    268.71919    176.35557    27564.756   0.58823379 
 1098000      1098000    3043.2205    1860.2862    1182.9342    265.45618    143.90794    26652.402   0.60836997 
 1100000      1100000    3163.3553    1958.9863    1204.3691    279.54032   -1845.2729    27427.715   0.59117288 
 1102000      1102000    3124.4024    1918.2223    1206.1802    273.72344    854.10019    26961.932   0.60138573 
 1104000      1104000    3140.9775    1940.3522    1200.6253    276.88131   -72.266415    26522.384   0.61135231 
 1106000      1106000    3135.3774    1999.3591    1136.0183    285.30138    135.42212    26471.205    0.6125343 
 1108000      1108000    2993.7993    1858.8803    1134.9189    265.25556    796.00944    26508.958   0.61166194 
 1110000      1110000    3099.3264    1898.4546    1200.8718    270.90267    -2235.655    26992.987   0.60069384 
 1112000      1112000    2964.7483    1854.0356    1110.7127    264.56424    165.32611    26187.147   0.61917859 
 1114000      1114000    3068.0588    1865.0232    1203.0357    266.13212    348.94677    26686.017   0.60760364 
 1116000      1116000    3045.4439    1920.2922    1125.1517    274.01882    39.243307    26290.199   0.61675155 
 1118000      1118000     3124.437    1951.3081    1173.1288    278.44468    829.70479    26579.834   0.61003093 
 1120000      1120000    3126.7564    1930.8539    1195.9025    275.52593    1440.0464    26537.225   0.61101042 
 1122000      1122000    2991.1829    1854.8715    1136.3115    264.68351    1109.2316    26346.564   0.61543209 
 1124000      1124000    3093.2737    1914.6342    1178.6395    273.21144   -2005.9636    27060.828    0.5991879 
 1126000      1126000    3114.7887    1957.8244    1156.9644    279.37452    922.62383    26764.129   0.60583032 
 1128000      1128000    3092.8729    1930.0535    1162.8194    275.41171    195.26987    27000.471   0.60052734 
 1130000      1130000    3099.1297    1945.2424    1153.8873    277.57913    232.30448    26795.318   0.60512514 
 1132000      1132000    3134.7616    1901.0422    1233.7194    271.27192    1430.1001    27106.087   0.59818744 
 1134000      1134000    3074.2499    1893.6842    1180.5657    270.22195    536.43308    26239.352   0.61794669 
 1136000      1136000    3046.9596    1892.7027    1154.2569    270.08189    831.54975    26947.864   0.60169967 
 1138000      1138000     3079.203    1854.2899     1224.913    264.60053   -1067.1373    27383.465   0.59212817 
 1140000      1140000    3167.0967    1932.0135    1235.0832    275.69141   -264.23736    27325.316   0.59338822 
 1142000      1142000    3107.1172    1881.6516    1225.4656    268.50494   -646.67709      28462.5   0.56968013 
 1144000      1144000    3100.7434    1915.6309    1185.1125    273.35366   -179.76129    27364.969   0.59252839 
 1146000      1146000    3115.5703    1945.9755    1169.5947    277.68374   -30.630402    26670.386   0.60795974 
 1148000      1148000    3070.0602     1890.756    1179.3042    269.80411   -364.94968    26936.686   0.60194935 
 1150000      1150000    3080.9333    1880.4381    1200.4952    268.33179    267.58388    27331.682   0.59325002 
 1152000      1152000    3040.9637    1883.6964    1157.2673    268.79673    31.645856     26643.92   0.60856363 
 1154000      1154000    3174.4896    1892.4763    1282.0133    270.04958    1170.0071    26897.977   0.60281563 
 1156000      1156000    3119.0482    1915.0406    1204.0076    273.26943   -1032.9617    26977.345   0.60104214 
 1158000      1158000    3062.2958    1853.7374    1208.5583    264.52169    259.40391    26370.114   0.61488246 
 1160000      1160000    3001.7666    1899.4856     1102.281    271.04979   -181.24201    25966.073   0.62445025 
 1162000      1162000    3122.3442     1925.603    1196.7412    274.77664   -363.61222    26746.836   0.60622202 
 1164000      1164000    3017.5136    1893.6123    1123.9013    270.21169    806.63081    26462.022   0.61274685 
 1166000      1166000    3041.3956    1899.5346     1141.861    271.05678   -60.739841    26283.994   0.61689715 
 1168000      1168000    3072.6706    1926.2317    1146.4389    274.86636    877.38323    26121.108     0.620744 
 1170000      1170000    3068.5811    1916.2854    1152.2957    273.44706    1070.6105    26223.681   0.61831598 
 1172000      1172000    3036.2008    1875.8495    1160.3513      267.677    853.00546    27133.021   0.59759365 
 1174000      1174000    3128.6801    1943.8407    1184.8395     277.3791   -577.74512    26068.505   0.62199658 
 1176000      1176000    3071.7233     1896.599    1175.1244    270.63788    -2.358056    26439.426   0.61327054 
 1178000      1178000    3048.4043     1889.839    1158.5653    269.67325    527.26219     26338.01   0.61563198 
 1180000      1180000    3085.6385    1915.2996     1170.339    273.30639    635.12744    26872.279    0.6033921 
 1182000      1182000    3097.8261    1918.0999    1179.7263    273.70598   -16.139019     26621.03   0.60908691 
 1184000      1184000    3084.8987     1897.584    1187.3147    270.77844    144.39691     26677.47   0.60779831 
 1186000      1186000     3143.082    1950.8009     1192.281    278.37231     287.2091    26993.454   0.60068345 
 1188000      1188000    3092.7951    1891.9996    1200.7955    269.98156   -1366.6667     27067.82   0.59903313 
 1190000      1190000    3197.8517    1933.2564    1264.5953    275.86876    527.08209    27149.425   0.59723257 
 1192000      1192000     3169.984    1939.5974    1230.3866     276.7736    748.30033    26821.791   0.60452789 
 1194000      1194000    3082.5051    1899.4628    1183.0424    271.04653   -919.32208    26734.617   0.60649909 
 1196000      1196000    3098.3722    1883.4532     1214.919    268.76203    373.59177    27550.311   0.58854221 
 1198000      1198000    3098.7054    1905.7679    1192.9375    271.94625    1458.1638    26785.446   0.60534818 
 1200000      1200000    3048.9271    1891.7814    1157.1457    269.95042   -234.23495    26071.384    0.6219279 
 1202000      1202000    3066.5888    1910.0366    1156.5522    272.55538    1327.2695    26064.297     0.622097 
 1204000      1204000    3079.4583      1927.28    1152.1783    275.01596    -1571.934    26927.777   0.60214851 
 1206000      1206000    3072.8202    1956.6276    1116.1926    279.20375    593.04746    26225.123   0.61828199 
 1208000      1208000    3085.0361    1942.1884    1142.8476    277.14333   -44.919081    26501.755   0.61182819 
 1210000      1210000    3078.4966    1869.4724    1209.0242    266.76701    235.08128    27019.981   0.60009372 
 1212000      1212000    2997.9754     1874.093    1123.8823    267.42636    271.77372    26412.885   0.61388678 
 1214000      1214000    3012.6802    1867.1184    1145.5619     266.4311    612.87445    26553.366   0.61063901 
 1216000      1216000     3062.859    1904.5288    1158.3303    271.76943    263.60925    26811.664   0.60475624 
 1218000      1218000    3107.2051    1929.3393    1177.8658    275.30981   -157.57692    26698.753   0.60731379 
 1220000      1220000    3039.3229    1847.9289    1191.3941    263.69283   -532.01898    26724.262   0.60673411 
 1222000      1222000     3174.532    1919.4004    1255.1316    273.89156    989.41925    27479.344   0.59006215 
 1224000      1224000    3052.0331    1881.7492    1170.2839    268.51886    848.34038    26495.203    0.6119795 
 1226000      1226000    3022.2998    1898.1261    1124.1737    270.85579   -1472.3542    26395.166   0.61429889 
 1228000      1228000    3094.7123    1937.2271    1157.4852    276.43537   -327.55234    25943.339   0.62499746 
 1230000      1230000    3019.4253    1901.5225    1117.9028    271.34045    497.92649    26455.489   0.61289818 
 1232000      1232000    3087.6046    1935.4143    1152.1903    276.17668    175.99276    26426.111   0.61357953 
 1234000      1234000    3036.0686     1873.783    1162.2857    267.38212    755.21041     26685.66   0.60761177 
 1236000      1236000    3103.6141    1916.9514    1186.6627     273.5421   -868.10518    26763.449   0.60584572 
 1238000      1238000    3115.4241    1916.3709    1199.0532    273.45927    1962.9419    26289.385   0.61677065 
 1240000      1240000    2987.1996    1861.2881    1125.9115    265.59914   -593.94633    26347.053   0.61542067 
 1242000      1242000    2947.8473    1838.5536    1109.2937    262.35502    1893.1874    26847.642    0.6039458 
 1244000      1244000    3190.3535    1973.9776    1216.3759    281.67953    1782.6594    26242.983   0.61786119 
 1246000      1246000     3086.086    1931.0798    1155.0062    275.55817   -850.61548    27313.896   0.59363633 
 1248000      1248000    3085.6635     1951.023    1134.6405    278.40399    953.18171    26284.956   0.61687456 
 1250000      1250000    3035.4051    1902.8417    1132.5634    271.52869   -945.85955    26425.041   0.61360437 
 1252000      1252000    3098.0645    1886.3999    1211.6646    269.18251   -707.03856    26605.659   0.60943881 
 1254000      1254000    3055.3208    1890.7955    1164.5253    269.80974   -873.37839    26356.201   0.61520706 
 1256000      1256000    3098.2479    1894.3685    1203.8794     270.3196   -78.940601    26279.488   0.61700292 
 1258000      1258000    3035.3079    1841.5918    1193.7161    262.78856    119.58783    26376.352   0.61473705 
 1260000      1260000    3091.0754    1955.4532    1135.6222    279.03616    1464.0755     26301.69   0.61648209 
 1262000      1262000    3082.5774    1889.1175    1193.4599     269.5703   -1537.1079    26437.998   0.61330365 
 1264000      1264000    3087.0797    1951.4389    1135.6408    278.46334    717.61977    26272.304   0.61717165 
 1266000      1266000    3120.5206    1882.1114    1238.4092    268.57055   -1629.9889    26894.246   0.60289926 
 1268000      1268000    3096.6413    1951.5523     1145.089    278.47953     1557.953    26317.347   0.61611534 
 1270000      1270000    3192.2647    1959.7727     1232.492    279.65255    1142.0982    26851.073   0.60386865 
 1272000      1272000    3062.8354    1893.5532    1169.2822    270.20326    453.71041    26865.888   0.60353564 
 1274000      1274000    3137.9014    1935.4984     1202.403    276.18868   -582.03061    26997.946    0.6005835 
 1276000      1276000     3166.375     1928.308     1238.067    275.16264    2312.7983    26437.074    0.6133251 
 1278000      1278000     2987.067    1862.1104    1124.9567    265.71648    1503.1743    25771.296    0.6291698 
 1280000      1280000    3006.9968    1872.3421    1134.6548     267.1765    819.09662    25807.612   0.62828444 
 1282000      1282000    3141.5812    1959.6371    1181.9441    279.63319    -414.6367    26190.628    0.6190963 
 1284000      1284000    3111.4855    1951.3224    1160.1631    278.44671    607.28669    26041.147   0.62265002 
 1286000      1286000    3027.6417    1905.0772    1122.5644     271.8477   -409.07397     25959.43   0.62461005 
 1288000      1288000    3092.2435    1914.4674    1177.7762    273.18763   -1631.4751    26529.232   0.61119451 
 1290000      1290000    3093.3216     1896.767    1196.5547    270.66185   -364.21015     26431.23   0.61346071 
 1292000      1292000    3045.7083    1907.4678    1138.2405    272.18882   -1775.8046    26061.988   0.62215213 
 1294000      1294000    3139.5012    1928.0216    1211.4796    275.12178    1238.2941    26987.941   0.60080615 
 1296000      1296000    3092.5365    1901.7218    1190.8147    271.36888   -1693.7452    26810.113   0.60479122 
 1298000      1298000    3081.5245    1915.9056    1165.6189    273.39287   -1409.5373    26836.575   0.60419487 
 1300000      1300000    3215.3493    1961.1465    1254.2027    279.84858    876.54216    27346.541   0.59292768 
 1302000      1302000    3049.6588    1895.6712    1153.9875    270.50549    499.12226    26093.596   0.62139849 
 1304000      1304000    3101.5867    1932.7322    1168.8545    275.79396   -148.70604    25949.549   0.62484789 
 1306000      1306000    3027.7707    1879.4489    1148.3217    268.19063     526.2662    25794.132   0.62861277 
 1308000      1308000    3111.8597    1973.1823    1138.6774    281.56604    30.888241    26524.843   0.61129563 
 1310000      1310000    3126.5325    1923.7878    1202.7447    274.51763   -1521.9938    27040.976    0.5996278 
 1312000      1312000    3072.3403     1864.446    1207.8943    266.04976    968.68072    27176.118   0.59664596 
 1314000      1314000    3119.8427    1915.0578    1204.7849    273.27189    1707.4096    26418.037   0.61376706 
 1316000      1316000    3140.7923    1867.0028    1273.7895    266.41461   -635.64981    27624.341   0.58696498 
 1318000      1318000    3033.9721    1896.0275    1137.9446    270.55633   -579.27606    26438.044   0.61330258 
 1320000      1320000    3266.0604    2008.1013    1257.9591    286.54887    1442.9579    26658.438   0.60823223 
 1322000      1322000    3109.6344     1890.007    1219.6275    269.69722    605.98856    27297.663   0.59398935 
 1324000      1324000    3088.6874    1891.9587    1196.7287    269.97573    178.08338    26631.873   0.60883893 
 1326000      1326000    3070.5963    1909.7155    1160.8808    272.50956    1902.9386     26631.69    0.6088431 
 1328000      1328000    3094.4624    1892.1587    1202.3037    270.00427   -1476.7838    26838.832   0.60414406 
 1330000      1330000    3148.5292    1948.4399    1200.0893    278.03539    -907.8828     26779.76   0.60547671 
 1332000      1332000    3070.2352    1885.1526    1185.0826    269.00452    1061.1453     26738.41   0.60641305 
 1334000      1334000     2976.752    1804.8401    1171.9119    257.54421   -1469.3673    26510.817   0.61161906 
 1336000      1336000    3050.8013    1912.1294    1138.6719    272.85402   -2271.2536    26867.557   0.60349815 
 1338000      1338000    2977.1252    1838.4548    1138.6705    262.34091    240.12782    26616.556   0.60918929 
 1340000      1340000    3141.8499     1924.424     1217.426    274.60841   -138.36139    26703.995   0.60719457 
 1342000      1342000     3079.264    1872.0449     1207.219     267.1341   -1190.8699    26955.905   0.60152019 
 1344000      1344000    3168.0813    1939.3261    1228.7552    276.73488     236.4255    27116.616   0.59795519 
 1346000      1346000    3020.2182    1854.8064    1165.4117    264.67423   -445.43007    26555.453   0.61059101 
 1348000      1348000    3183.8819    1968.7579     1215.124     280.9347   -246.01029    27518.878   0.58921447 
 1350000      1350000    3146.9383    1966.2448    1180.6935    280.57609   -2101.8879    27294.226   0.59406415 
 1352000      1352000     3160.282    1966.9835    1193.2985    280.68149    620.30441    27242.768   0.59518626 
 1354000      1354000     3108.019    1942.0823    1165.9367    277.12819    963.84203     26778.95   0.60549503 
 1356000      1356000    3145.1875    1917.8653    1227.3221    273.67251    874.42751    27164.484    0.5969015 
 1358000      1358000    3018.0751    1858.1108    1159.9643    265.14575   -620.63004    26723.528   0.60675076 
[...]
 4682000      4682000    3046.2391    1932.1252    1114.1139    275.70734    1635.2695    26247.068   0.61776504 
 4684000      4684000    3056.9845     1873.518    1183.4665     267.3443    630.82112    26233.041   0.61809537 
 4686000      4686000    3076.6792    1909.7614    1166.9178    272.51611    929.24889    26748.309   0.60618864 
 4688000      4688000    3181.3377    1972.4003    1208.9374    281.45446   -314.42499    26652.495   0.60836785 
 4690000      4690000    2965.3044    1834.0118    1131.2926    261.70691   -208.50521    26420.638   0.61370664 
 4692000      4692000    3036.2525    1910.9937    1125.2589    272.69195      626.289    26156.751   0.61989814 
 4694000      4694000    3102.8968     1902.921    1199.9758    271.54001     -981.277     26835.56   0.60421772 
 4696000      4696000    3127.5926    1902.4711    1225.1215    271.47581     1770.826    26751.178   0.60612363 
 4698000      4698000    3040.5091    1872.1823    1168.3268     267.1537    464.56734     26824.67   0.60446302 
 4700000      4700000    3122.1857    1935.9671    1186.2187    276.25556    679.17267    26680.364   0.60773237 
 4702000      4702000    3098.3915     1939.298    1159.0935    276.73087     290.0293    26392.157   0.61436892 
 4704000      4704000    3074.5863    1937.4795    1137.1068    276.47138    687.50706    26493.292   0.61202363 
 4706000      4706000    3098.3028    1917.6179    1180.6849     273.6372   -6.1971606    27308.321   0.59375752 
 4708000      4708000    3047.2788    1883.1921    1164.0867    268.72476   -493.48875    27919.168   0.58076663 
 4710000      4710000    3067.4211    1892.5936    1174.8274    270.06633    43.322185     27101.39   0.59829112 
 4712000      4712000    3157.3464    1928.8858    1228.4606     275.2451   -1205.0869    27504.879   0.58951436 
 4714000      4714000    3077.1006    1882.5226     1194.578    268.62923    1629.2047    27006.657   0.60038977 
 4716000      4716000    3149.4581    1927.5049    1221.9533    275.04804   -347.84762    26930.671   0.60208381 
 4718000      4718000    3143.1218    1855.0536    1288.0682     264.7095   -1280.4181    28089.833   0.57723807 
 4720000      4720000    3090.4583    1891.6007    1198.8577    269.92464    141.68785    27182.295   0.59651037 
 4722000      4722000    3143.5525    1934.2617    1209.2908    276.01222    -617.3385    27459.198   0.59049507 
 4724000      4724000    3108.8984    1861.9335    1246.9649    265.69124    58.969601    27372.059   0.59237491 
 4726000      4726000    3028.0792    1852.0753    1176.0039    264.28451    1621.3367    26753.399   0.60607331 
 4728000      4728000    3179.7083    1915.7011    1264.0073    273.36368   -994.86128    27735.122    0.5846205 
 4730000      4730000    3080.8849    1880.1907    1200.6942    268.29648   -160.17535    27011.884    0.6002736 
 4732000      4732000    3124.5856    1915.3656      1209.22    273.31581    -1262.073    27188.322   0.59637814 
 4734000      4734000    3116.1101    1889.7535    1226.3567    269.66105   -1110.4975    27298.386   0.59397362 
 4736000      4736000    3013.1445    1916.4795     1096.665    273.47476    -1431.639    26251.996   0.61764907 
 4738000      4738000    3117.4999    1950.9033    1166.5966    278.38692    826.25969    26475.985   0.61242372 
 4740000      4740000    3099.7861    1811.5146    1288.2715    258.49664    500.06854    27870.459   0.58178162 
 4742000      4742000    3096.6664    1955.9412    1140.7252     279.1058    1333.6171    26825.298   0.60444887 
 4744000      4744000    3154.9391    1927.4341     1227.505    275.03793    1576.9109    27256.019   0.59489688 
 4746000      4746000    3085.9375    1892.4853    1193.4522    270.05087    368.99625    27214.386   0.59580698 
 4748000      4748000    3115.7107    1889.8842    1225.8265     269.6797    635.46083    27261.404   0.59477939 
 4750000      4750000    3056.1672    1910.5282    1145.6389    272.62554   -847.29631    26884.554   0.60311661 
 4752000      4752000    3125.6193    1918.4216    1207.1977    273.75188    475.64655    27598.284   0.58751918 
 4754000      4754000    3196.9947    1950.2747      1246.72    278.29721    334.70609     27614.47    0.5871748 
 4756000      4756000     3075.506    1858.2004    1217.3056    265.15854   -1238.5481    27886.321   0.58145069 
 4758000      4758000    3109.6022    1911.9789    1197.6232    272.83254   -472.24968    26647.806    0.6084749 
 4760000      4760000    3081.0878    1874.8737    1206.2141    267.53776   -583.24414    27016.805   0.60016427 
 4762000      4762000    2990.1329    1902.5493    1087.5836    271.48697    567.77753    27228.102   0.59550684 
 4764000      4764000     3000.103    1884.3209    1115.7821    268.88585    117.34127    26604.082   0.60947492 
 4766000      4766000    3117.1013    1929.8831    1187.2182     275.3874   -318.77774    26336.307   0.61567179 
 4768000      4768000    3052.3172    1908.1654    1144.1518    272.28836   -718.16436    26983.844   0.60089737 
 4770000      4770000    3113.5589    1926.7888    1186.7701    274.94587    452.48782    26604.498    0.6094654 
 4772000      4772000    3113.4984    1922.4967    1191.0018    274.33339    2348.6621    26306.872   0.61636066 
 4774000      4774000    3014.6936    1887.2516     1127.442    269.30405    12.517883    26231.356   0.61813507 
 4776000      4776000    3226.9345    1980.2201    1246.7144    282.57032   -174.93505    27286.559   0.59423106 
 4778000      4778000    3099.8367    1911.7036    1188.1331    272.79325   -208.73263    26603.624   0.60948542 
 4780000      4780000    3060.8551    1912.9351      1147.92    272.96899   -363.27872    27087.907   0.59858891 
 4782000      4782000    3028.1617    1928.6692    1099.4925    275.21419   -2262.8808    26478.643   0.61236222 
 4784000      4784000    3132.0901     1926.463    1205.6271    274.89937    7.3119208    26323.406   0.61597351 
 4786000      4786000    3048.6968    1895.7492    1152.9476    270.51662   -191.27996    26396.399   0.61427019 
 4788000      4788000    3074.1434    1874.9338    1199.2096    267.54634    1038.9359    26067.559   0.62201916 
 4790000      4790000    3091.1457    1892.9262    1198.2195    270.11378   -136.60821    26384.529   0.61454654 
 4792000      4792000    3002.5565    1896.3001    1106.2564    270.59523     -196.768    25785.161   0.62883148 
 4794000      4794000    3146.8684    1914.7494     1232.119    273.22788    928.04976    26322.828   0.61598705 
 4796000      4796000    3145.5846    1945.4115    1200.1731    277.60325   -651.03412    26833.332   0.60426788 
 4798000      4798000    3068.0139     1913.456    1154.5579    273.04332    1267.2397    26537.197   0.61101106 
 4800000      4800000    3153.3326    1949.3487    1203.9839    278.16508   -267.26005    26585.116   0.60990974 
 4802000      4802000     3022.985     1850.697     1172.288    264.08783   -756.38235    26433.975   0.61339699 
 4804000      4804000    3035.5681    1873.6314    1161.9367    267.36049   -1322.5065    26112.131   0.62095739 
 4806000      4806000     3058.982    1866.2772    1192.7047    266.31108    662.55926    26992.283   0.60070949 
 4808000      4808000    3107.1924    1912.4938    1194.6987    272.90601    1226.6546    26699.504   0.60729672 
 4810000      4810000    3052.6769    1853.4028     1199.274    264.47394   -779.93113    26332.961   0.61575002 
 4812000      4812000    3119.1717    1952.4035    1166.7682    278.60098    1293.6338     25873.17   0.62669249 
 4814000      4814000    3011.8197    1855.3219    1156.4979    264.74778   -964.29502    26342.117   0.61553598 
 4816000      4816000    3153.8524    1923.0633    1230.7891    274.41424   -474.15928    26829.264   0.60435951 
 4818000      4818000    3030.3455    1870.7293    1159.6162    266.94637    -1435.063    26666.233   0.60805443 
 4820000      4820000    3113.9745     1906.026    1207.9485    271.98308   -98.259178    26570.255   0.61025086 
 4822000      4822000    3116.4225     1930.893    1185.5295    275.53151    2125.0875    26148.455   0.62009479 
 4824000      4824000    3032.9036    1863.5582    1169.3454    265.92308   -247.22433    26187.356   0.61917366 
 4826000      4826000    3048.4696    1872.2742    1176.1954    267.16681    1866.7547     26574.68   0.61014924 
 4828000      4828000    3026.9224    1908.3706    1118.5518    272.31765   -1824.9361    25543.845   0.63477212 
 4830000      4830000    3063.8575    1915.6162    1148.2413    273.35157   -689.44078    26464.332   0.61269338 
 4832000      4832000    3110.9507    1917.1002    1193.8505    273.56333   -251.48672    26620.039    0.6091096 
 4834000      4834000    3072.3328    1930.7854    1141.5474    275.51615    298.12425    26044.507    0.6225697 
 4836000      4836000    3132.4001    1936.6106    1195.7895     276.3474    510.45729    26842.083   0.60407089 
 4838000      4838000    3061.1219    1938.4638    1122.6581    276.61184   -304.27352    26101.731   0.62120481 
 4840000      4840000    3071.5239     1892.749    1178.7749     270.0885   -696.09139    25964.103   0.62449763 
 4842000      4842000    3125.4757    1895.9004    1229.5753    270.53819   -306.59605    26379.117   0.61467263 
 4844000      4844000    3071.9701    1917.3279    1154.6422    273.59582    832.05725     26269.91   0.61722787 
 4846000      4846000    3081.3789     1927.957    1153.4219    275.11256     1124.786     26139.87   0.62029846 
 4848000      4848000    2975.4835    1800.0188    1175.4647    256.85624   -1133.6371    25906.537   0.62588532 
 4850000      4850000    3088.3606    1910.7322    1177.6284    272.65464    996.85925    26676.079   0.60782999 
 4852000      4852000    2985.6446    1892.3392    1093.3053    270.03003   -483.21446    26245.701   0.61779721 
 4854000      4854000    3080.9748    1894.4195    1186.5554    270.32687    411.97196     27194.29   0.59624726 
 4856000      4856000    3075.9856    1900.5394    1175.4461    271.20017   -2087.0608    27219.492   0.59569521 
 4858000      4858000    3058.0277    1873.9631    1184.0645    267.40782    1126.0852    27531.692   0.58894023 
 4860000      4860000    3090.8375    1929.0202    1161.8173    275.26428   -541.46144    26926.565   0.60217561 
 4862000      4862000    3099.1638    1929.3831    1169.7807    275.31606    -915.1568    26556.201   0.61057381 
 4864000      4864000     3148.007    1969.9467    1178.0603    281.10433    647.57065    26772.007   0.60565205 
 4866000      4866000    3016.6029    1898.9195    1117.6834    270.96901    6.4798384    26530.126   0.61117392 
 4868000      4868000    3025.1802    1883.5819    1141.5983    268.78038   -414.35841    26802.755   0.60495725 
 4870000      4870000    3153.6842    1897.6219    1256.0623    270.78385    689.91318    26910.909   0.60252594 
 4872000      4872000    3058.1524    1887.6421    1170.5103    269.35977    12.598262    27093.336   0.59846898 
 4874000      4874000    3132.1207    1894.2192    1237.9015    270.29829   -968.86548    26837.443   0.60417534 
 4876000      4876000    3087.5233     1912.194    1175.3293    272.86323    60.339016    26777.357   0.60553104 
 4878000      4878000    3078.7865    1904.2111    1174.5753    271.72411   -15.277553    26509.972   0.61163856 
 4880000      4880000    3139.5002    1926.9879    1212.5122    274.97427   -1958.3899    27845.552   0.58230201 
 4882000      4882000    3124.2645     1913.948    1210.3165    273.11352    1126.7202    27386.287   0.59206715 
 4884000      4884000    3127.4931    1936.9838    1190.5094    276.40064   -683.29012     27062.03   0.59916129 
 4886000      4886000     3108.731    1888.0807    1220.6502    269.42236    395.08864    27074.806   0.59887857 
 4888000      4888000    3042.2666    1902.8262    1139.4404    271.52648   -1544.4337    26233.675   0.61808042 
 4890000      4890000     3122.546    1914.6966    1207.8495    273.22034   -148.71633    27146.033   0.59730721 
 4892000      4892000    3012.8246    1908.0715    1104.7532    272.27496   -1209.5007     26542.13   0.61089751 
 4894000      4894000    3106.0324    1935.2799    1170.7525     276.1575    1269.8555     26513.61   0.61155464 
 4896000      4896000    3108.7407    1893.8774    1214.8634    270.24951    1296.8869    26348.826   0.61537925 
 4898000      4898000    3107.9343    1883.2518    1224.6826    268.73328    386.48224    27398.554   0.59180207 
 4900000      4900000    3146.6227    1901.5561    1245.0666    271.34524   -753.68313    27178.261    0.5965989 
 4902000      4902000    2976.4336    1842.4855     1133.948    262.91608    876.25411    26696.437   0.60736648 
 4904000      4904000    3078.6131      1873.87     1204.743    267.39454    534.79503    26935.295   0.60198045 
 4906000      4906000    3037.8709    1878.2097    1159.6611     268.0138    72.278115    27293.748   0.59407454 
 4908000      4908000     3141.569    1933.5386    1208.0304    275.90903    1312.5086     26894.87   0.60288526 
 4910000      4910000    3110.4385    1909.1626    1201.2759    272.43066    312.90268    26778.461   0.60550608 
 4912000      4912000    3015.0488    1859.7455    1155.3033    265.37902    747.76155     27068.59   0.59901609 
 4914000      4914000    3101.5377    1905.0648    1196.4729    271.84593    1424.9068    27695.547   0.58545589 
 4916000      4916000    3034.8881    1861.1827    1173.7054     265.5841     325.9272    26737.756   0.60642788 
 4918000      4918000    3086.8118    1886.6684    1200.1434    269.22082    2100.1323    26476.053   0.61242213 
 4920000      4920000     3088.051     1900.905     1187.146    271.25233    813.49083    27314.808   0.59361652 
 4922000      4922000     3129.885    1908.4267    1221.4583    272.32565    861.64006    27413.677    0.5914756 
 4924000      4924000    3169.2554    1942.7352    1226.5202    277.22135    626.58361    26629.034   0.60890383 
 4926000      4926000    3064.0479     1916.728    1147.3198    273.51022    1153.2109    27362.682   0.59257791 
 4928000      4928000    3074.4958    1933.2291    1141.2667    275.86487    1351.7992    26463.147   0.61272081 
 4930000      4930000    3090.4446    1904.6082    1185.8364    271.78077   -1138.9272    27367.727   0.59246867 
 4932000      4932000    3141.7262    1954.0372     1187.689    278.83411   -585.88505    27403.715   0.59169061 
 4934000      4934000    3081.4909    1929.9707    1151.5202     275.3999   -479.76185    27043.018   0.59958252 
 4936000      4936000    3033.1828    1876.7237    1156.4591    267.80175    1194.8774    26769.462   0.60570963 
 4938000      4938000    3010.6782    1876.0386    1134.6396    267.70399   -1278.4484     27161.99   0.59695629 
 4940000      4940000    3148.6479     1935.442    1213.2059    276.18063   -1250.9979    27282.226   0.59432544 
 4942000      4942000    3004.5069    1863.7757    1140.7311    265.95412    152.16247    27286.711   0.59422776 
 4944000      4944000     3015.213    1894.3429    1120.8701    270.31594   -542.39708    26517.284    0.6114699 
 4946000      4946000    2972.2742    1828.7204    1143.5538    260.95185    -295.4526    26821.492   0.60453463 
 4948000      4948000    3079.4629    1896.4557    1183.0073    270.61743    2325.4519    26579.355   0.61004192 
 4950000      4950000    3064.3332    1909.3765    1154.9567    272.46119    -902.5349    26030.721   0.62289941 
 4952000      4952000    3100.4081    1950.3935    1150.0146    278.31417   -967.32361    26290.264   0.61675002 
 4954000      4954000    3061.2025    1881.9274    1179.2752    268.54429   -1216.6006    26832.712   0.60428185 
 4956000      4956000    3080.0759    1922.2511    1157.8248    274.29834   -722.87097    26997.636   0.60059039 
 4958000      4958000    3146.9091     1907.912    1238.9971    272.25221      229.752    26359.675   0.61512598 
 4960000      4960000    3104.0047    1935.1453    1168.8594     276.1383    1700.2794    26699.564   0.60729535 
 4962000      4962000    3039.7157    1875.9119    1163.8038    267.68591    610.63093    27138.162   0.59748044 
 4964000      4964000    3103.6837    1904.4994    1199.1843    271.76524    319.75727    27426.347   0.59120235 
 4966000      4966000    3046.4035    1869.8804    1176.5231    266.82523    828.45368    27194.863    0.5962347 
 4968000      4968000    3157.8702    1916.7439    1241.1264    273.51248   -1978.3138     27067.61   0.59903778 
 4970000      4970000     3016.268    1892.0907    1124.1774    269.99456   -156.09007    26687.256   0.60757544 
 4972000      4972000    3116.7314    1905.4906    1211.2408    271.90668   -2893.3531    26375.561   0.61475549 
 4974000      4974000    3096.4937    1919.0656    1177.4281    273.84378    894.06256    26115.077   0.62088735 
 4976000      4976000    3070.3374    1918.8902    1151.4472    273.81875    662.85271    26637.105   0.60871934 
 4978000      4978000    3085.1104    1865.6488    1219.4616     266.2214     261.1099    27165.925   0.59686983 
 4980000      4980000     3054.168    1904.7237    1149.4442    271.79725   -35.550959    26308.724   0.61631727 
 4982000      4982000    3015.5902    1859.9847    1155.6055    265.41315    58.688113    26646.421   0.60850651 
 4984000      4984000    3068.9702    1867.8447    1201.1255    266.53474   -1600.0914    26729.027   0.60662593 
 4986000      4986000    3069.0497    1907.1033    1161.9464    272.13681    1707.2598    27056.477   0.59928427 
 4988000      4988000    3125.9881    1926.4214    1199.5667    274.89343    343.72045    26790.665   0.60523024 
 4990000      4990000    3089.9218    1912.3446    1177.5772    272.88472    925.22015    26657.473   0.60825423 
 4992000      4992000    3023.1678    1874.5936    1148.5742    267.49779   -1957.0534    26888.841   0.60302045 
 4994000      4994000    2982.3693    1880.0446    1102.3247    268.27563    835.83401    26482.406   0.61227523 
 4996000      4996000    3130.6445    1920.0396    1210.6049    273.98277    429.49624    26779.123   0.60549111 
 4998000      4998000    3078.6255    1890.1325    1188.4929    269.71514    276.01909    26782.554   0.60541355 
 5000000      5000000    3150.0182    1938.3766    1211.6416     276.5994     157.6142    27517.287   0.58924854 
Loop time of 6910.53 on 30 procs for 5000000 steps with 2352 atoms

Performance: 62.513 ns/day, 0.384 hours/ns, 723.533 timesteps/s
93.0% CPU use with 30 MPI tasks x 1 OpenMP threads

MPI task timing breakdown:
Section |  min time  |  avg time  |  max time  |%varavg| %total
---------------------------------------------------------------
Pair    | 2559.3     | 2872       | 3097.1     | 296.8 | 41.56
Bond    | 164.53     | 166.6      | 168.88     |   6.5 |  2.41
Kspace  | 1097.6     | 1322.6     | 1722.6     | 455.6 | 19.14
Neigh   | 202.7      | 205.21     | 207.75     |   8.8 |  2.97
Comm    | 1742.2     | 1836.6     | 1896.1     |  95.4 | 26.58
Output  | 1.3896     | 1.3929     | 1.4459     |   0.8 |  0.02
Modify  | 191.07     | 231.15     | 284.26     | 184.6 |  3.34
Other   |            | 275        |            |       |  3.98

Nlocal:    78.4 ave 92 max 53 min
Histogram: 1 0 0 2 4 6 3 6 3 5
Nghost:    4671.17 ave 4750 max 4573 min
Histogram: 3 2 1 4 4 0 4 3 5 4
Neighs:    38444.4 ave 46514 max 23309 min
Histogram: 1 0 0 3 4 4 4 6 3 5

Total # of neighbors = 1153332
Ave neighs/atom = 490.362
Ave special neighs/atom = 9.14286
Neighbor list builds = 161257
Dangerous builds = 0
write_data ethanol_after_npt.data
Ewald initialization ...
  using 12-bit tables for long-range coulomb (src/kspace.cpp:332)
  G vector (1/distance) = 0.187296
  estimated absolute RMS force accuracy = 0.00332713
  estimated relative force accuracy = 1.00196e-05
  KSpace vectors: actual max1d max3d = 257 5 665
                  kxmax kymax kzmax  = 5 5 5



#fix 1 all nvt temp 300 300 100# iso 1.0 1.0 1000.0
#dump            DUMPxyz all xyz 1 but1_clms_20ps.xyz

#run 500000
Total wall time: 1:55:10
