LAMMPS (3 Mar 2020)
  using 1 OpenMP thread(s) per MPI task
units           real
atom_style      full
boundary        p p p


pair_style      lj/cut/coul/long 12.0
pair_modify     tail yes mix geometric
bond_style      harmonic
angle_style     harmonic
dihedral_style  opls

kspace_style    ewald 1.0e-5
#special_bonds   lj/coul 0.0 0.0 0.5

neighbor        2.0 bin
neigh_modify    every 1 delay 0 check yes

read_data       buate_after_min.data
  orthogonal box = (0 0 0) to (35 35 35)
  2 by 3 by 4 MPI processor grid
  reading atoms ...
  2352 atoms
  reading velocities ...
  2352 velocities
  scanning bonds ...
  1 = max bonds/atom
  scanning angles ...
  6 = max angles/atom
  scanning dihedrals ...
  11 = max dihedrals/atom
  reading bonds ...
  2184 bonds
  reading angles ...
  4032 angles
  reading dihedrals ...
  4536 dihedrals
  4 = max # of 1-2 neighbors
  6 = max # of 1-3 neighbors
  9 = max # of 1-4 neighbors
  13 = max # of special neighbors
  special bonds CPU = 0.000917397 secs
  read_data CPU = 0.0455303 secs

group           mobile union all
2352 atoms in group mobile

#minimize 1.0e-8 1.0e-10 400000 400000
#write_data buate_after_min.data

thermo_style    custom step time  etotal ke pe temp press vol density
#thermo_modify   line multi
thermo          2000
thermo_modify   flush yes
timestep 1.0


## Equil NPT ##
fix      NPT  all npt temp 175 175 100 iso 1 1 1000
restart 1000000 liqbut1.restart

#fix      NPT  all npt temp 160 160 50 iso 1 1 500
dump myDump all atom 2000 butane_npt.lammpstrj

run 5000000
Ewald initialization ...
  using 12-bit tables for long-range coulomb (src/kspace.cpp:332)
  G vector (1/distance) = 0.183139
  estimated absolute RMS force accuracy = 0.00345955
  estimated relative force accuracy = 1.04183e-05
  KSpace vectors: actual max1d max3d = 257 5 665
                  kxmax kymax kzmax  = 5 5 5
Neighbor list info ...
  update every 1 steps, delay 0 steps, check yes
  max neighbors/atom: 2000, page size: 100000
  master list distance cutoff = 14
  ghost atom cutoff = 14
  binsize = 7, bins = 5 5 5
  1 neighbor lists, perpetual/occasional/extra = 1 0 0
  (1) pair lj/cut/coul/long, perpetual
      attributes: half, newton on
      pair build: half/bin/newton
      stencil: half/bin/3d/newton
      bin: standard
Per MPI rank memory allocation (min/avg/max) = 21.72 | 21.89 | 22.62 Mbytes
Step Time TotEng KinEng PotEng Temp Press Volume Density 
       0            0   -769.51728            0   -769.51728            0   -124.28966        42875   0.37818125 
    2000         2000   -19.326834     540.7771   -560.10393    77.166954    68.309376    33050.869   0.49059288 
    4000         4000    1787.0768    1218.7726    568.30421    173.91448    444.79088    46569.309    0.3481804 
    6000         6000    1971.2436    1224.8356    746.40803    174.77965   -90.641909    55593.779   0.29166071 
    8000         8000    2024.6604    1218.0597    806.60068    173.81275    184.81656    60556.067   0.26776047 
   10000        10000    2083.8217    1202.9035    880.91817    171.65002   -20.489388    64144.012   0.25278308 
   12000        12000    2136.3942    1203.6639    932.73032    171.75852   -242.26757    65960.879   0.24582027 
   14000        14000    2063.3105    1224.3888    838.92171    174.71589    -218.1707    59354.866    0.2731793 
   16000        16000    2075.6202    1240.2802    835.33991    176.98355   -77.851241    52766.459    0.3072884 
   18000        18000    1945.8527    1204.6149    741.23778    171.89423   -91.965822    48140.017   0.33682001 
   20000        20000    2009.4419    1266.4996    742.94231    180.72495   -478.95376    42206.972   0.38416689 
   22000        22000    1864.3914    1209.5318    654.85962    172.59586   -718.11775    36829.553   0.44025842 
   24000        24000    1846.0669    1251.3081    594.75879    178.55718    737.08085    32470.552   0.49936081 
   26000        26000    1773.8966     1212.222    561.67455    172.97974   -584.42864    28486.843   0.56919332 
   28000        28000    1730.9241    1242.5728    488.35124    177.31069    226.86715    27173.241   0.59670912 
   30000        30000    1641.7236    1193.3229    448.40073     170.2829    723.54765    25777.684   0.62901388 
   32000        32000    1657.2009    1211.7506    445.45032    172.91247    698.83651    25368.769   0.63915284 
   34000        34000    1651.4665    1230.1709     421.2956    175.54097    1100.0157    24897.993   0.65123807 
   36000        36000    1609.8625    1217.7553    392.10725    173.76932    822.70116    24448.108   0.66322191 
   38000        38000    1578.7965    1182.9273    395.86918    168.79949    780.69307    24627.036   0.65840326 
   40000        40000    1642.7657    1231.6251    411.14055    175.74849    210.37398    23703.684   0.68405066 
   42000        42000    1621.0162    1235.8034    385.21279    176.34472    -433.6345    23870.984   0.67925651 
   44000        44000    1596.0543    1218.5703    377.48398    173.88562   -585.89843    23585.371   0.68748212 
   46000        46000    1596.5233    1234.4389     362.0844       176.15   -94.253622    23586.211   0.68745762 
   48000        48000    1578.4267    1227.4384    350.98832    175.15106    -735.4064    23690.336    0.6844361 
   50000        50000    1604.5865    1214.2377    390.34881    173.26737   -325.24922    23251.362    0.6973579 
   52000        52000    1605.1486    1259.3689    345.77969    179.70743   -45.145978    23177.053   0.69959374 
   54000        54000    1607.1312     1246.397    360.73417    177.85639     282.0843    22778.368   0.71183857 
   56000        56000    1598.7293    1261.6804    337.04885    180.03728    96.257647    22906.652   0.70785208 
   58000        58000    1591.0875    1224.6264     366.4611     174.7498    -1766.472    22949.785    0.7065217 
   60000        60000    1545.4629    1231.8466    313.61638    175.78009    617.56306    22783.119   0.71169012 
   62000        62000    1568.3368    1235.0288    333.30802    176.23418   -475.66837    22660.412   0.71554395 
   64000        64000    1572.3889    1212.4534    359.93549    173.01275    1533.3298    22670.471   0.71522646 
   66000        66000    1536.3525    1203.9578    332.39469    171.80046   -1098.8643     22762.89   0.71232259 
   68000        68000    1546.5624     1250.019    296.54334    178.37323    1375.0038    22721.656   0.71361527 
   70000        70000    1512.8626    1188.4677    324.39493    169.59008    171.78445     22900.08   0.70805521 
   72000        72000     1614.174    1230.9042    383.26974    175.64562   -309.60253     22928.46   0.70717881 
   74000        74000     1565.534    1245.3122    320.22181    177.70158    629.77702    22671.487   0.71519442 
   76000        76000    1563.5235    1221.7703    341.75317    174.34225     738.9258    22737.487   0.71311841 
   78000        78000    1508.1275    1187.7684    320.35917    169.49029    1306.0527    22445.915   0.72238181 
   80000        80000    1517.2568    1208.7666    308.49012    172.48667    360.30613    22706.156   0.71410243 
   82000        82000    1567.2267    1252.6578    314.56892    178.74978     605.0366    22523.408   0.71989644 
   84000        84000    1574.9295    1229.2647    345.66475    175.41167     429.0427    22734.591   0.71320925 
   86000        86000    1546.6117    1229.5953    317.01647    175.45884    755.68196     22513.15   0.72022444 
   88000        88000    1563.3461    1229.3833    333.96281    175.42859   -538.78427    22472.725   0.72152001 
   90000        90000    1561.8795    1227.9166    333.96295     175.2193   -875.73783    22717.069   0.71375936 
   92000        92000    1520.3317     1211.484     308.8477    172.87442    673.98178    22791.846   0.71141762 
   94000        94000    1555.8807    1225.2102    330.67047     174.8331   -526.47902    22529.432   0.71970393 
   96000        96000    1533.6604    1191.3584    342.30204    170.00257   -285.41568    22816.003   0.71066441 
   98000        98000    1579.7968     1243.081    336.71575    177.38321   -670.70085    22715.876   0.71379685 
  100000       100000    1546.6482    1235.3086    311.33962    176.27411    1650.4418    22557.598    0.7188053 
  102000       102000    1525.0993    1200.8148    324.28453    171.35197    686.64457    22653.304   0.71576848 
  104000       104000     1581.765    1240.6716    341.09331     177.0394    -867.8947    22871.646   0.70893548 
  106000       106000     1572.385    1239.1423    333.24266    176.82117   -787.72326     22777.97   0.71185101 
  108000       108000    1516.0646    1198.9692     317.0954    171.08861      1239.69    22492.117   0.72089793 
  110000       110000     1543.076    1193.5723    349.50374    170.31849   -193.67053    22467.679   0.72168208 
  112000       112000     1575.376     1240.273    335.10304    176.98251   -1069.2143    22688.459   0.71465943 
  114000       114000    1557.1863    1181.3688    375.81745     168.5771    267.57859    23002.325   0.70490791 
  116000       116000    1562.7274    1226.3293    336.39805     174.9928   -1354.9458    22538.515   0.71941391 
  118000       118000    1541.9751    1192.6868    349.28836    170.19213   -1030.6175    22677.428   0.71500705 
  120000       120000    1562.3735    1216.6307    345.74273    173.60885   -57.172474    22801.461   0.71111763 
  122000       122000    1537.8902    1207.9034     329.9868    172.36348   -449.02858    22924.498   0.70730103 
  124000       124000    1574.0711    1240.8588    333.21228    177.06611     -258.204    22891.114   0.70833256 
  126000       126000    1532.7306    1225.6287    307.10192    174.89283     6.014097    22733.496    0.7132436 
  128000       128000    1558.1745    1242.5525    315.62204    177.30779     233.5288    22493.014    0.7208692 
  130000       130000    1589.8188    1246.0326     343.7862    177.80439     -822.346    22799.203   0.71118807 
  132000       132000     1510.805    1215.6805    295.12449    173.47325    31.404585    22767.244   0.71218637 
  134000       134000    1490.1134    1187.7147    302.39867    169.48264   -158.98086    22544.249   0.71923093 
  136000       136000    1540.7217    1227.3586    313.36304    175.13968   -523.27294    22501.185   0.72060743 
  138000       138000    1581.5158    1210.0225    371.49334    172.66587   -597.98962    22741.807   0.71298296 
  140000       140000    1524.9918    1209.9603    315.03151      172.657    110.92939     22513.45   0.72021486 
  142000       142000    1545.0921     1223.679    321.41308    174.61462     775.6768    22562.454    0.7186506 
  144000       144000    1529.4216    1219.9435    309.47803    174.08157    -189.1088    22444.936   0.72241333 
  146000       146000     1590.882     1254.371    336.51097    178.99425    29.871472    22969.992   0.70590015 
  148000       148000    1548.4095    1235.4315    312.97805    176.29165   -145.62053    22522.384   0.71992915 
  150000       150000    1560.3343    1237.5587    322.77567    176.59519   -421.03713    22438.332   0.72262596 
  152000       152000    1535.1338    1242.3994    292.73442    177.28594     711.9948    22545.315   0.71919692 
  154000       154000    1493.5871    1225.6596    267.92751    174.89723    344.44641     22445.22   0.72240418 
  156000       156000    1540.6027    1202.7323    337.87039    171.62559   -99.221061    22329.281   0.72615509 
  158000       158000    1547.1931    1220.4338    326.75934    174.15152    1619.9779    22380.966   0.72447814 
  160000       160000    1581.5326    1255.6026    325.93001    179.16999    -612.4735     22227.13   0.72949235 
  162000       162000     1555.316    1224.2991    331.01689    174.70309   -1520.4003    22630.202   0.71649916 
  164000       164000    1527.6236    1210.9891    316.63449    172.80381    105.57324    22439.854   0.72257693 
  166000       166000    1549.0936    1231.9954    317.09821    175.80133    136.36909    22237.125   0.72916444 
  168000       168000    1538.3731    1234.8393    303.53376    176.20714   -735.08974      22461.1   0.72189345 
  170000       170000    1505.3228    1212.8992    292.42367    173.07637   -993.96804    22190.439   0.73069851 
  172000       172000    1518.0102    1223.3257    294.68443     174.5642    611.48198    22574.459    0.7182684 
  174000       174000    1501.9754    1193.9445    308.03082    170.37161   -153.23463    22297.985   0.72717428 
  176000       176000    1566.6039    1237.5394    329.06453    176.59243   -159.51992    22583.789   0.71797168 
  178000       178000    1564.6978     1204.288    360.40978    171.84758   -345.31054    23012.358   0.70460057 
  180000       180000    1556.9506    1237.9387    319.01189    176.64942   -215.07137    22777.737   0.71185828 
  182000       182000    1543.1964    1212.2917    330.90474    172.98968    929.64472    22864.087   0.70916985 
  184000       184000    1602.0269    1259.4505    342.57647    179.71907    720.32392    22681.308   0.71488473 
  186000       186000    1474.3421    1192.5665    281.77554    170.17497   -323.30389    22184.966   0.73087878 
  188000       188000    1555.8158    1237.2149    318.60091    176.54613    404.51023    22876.348   0.70878974 
  190000       190000    1547.5589    1217.9792     329.5797    173.80127   -536.88117     22347.08   0.72557672 
  192000       192000    1594.3982    1254.5363     339.8619    179.01784   -206.15503    22764.776   0.71226358 
  194000       194000     1543.742    1224.2033    319.53872    174.68942   -42.562413     22483.47    0.7211752 
  196000       196000    1576.8898    1228.8176    348.07218    175.34787    -1603.257    22670.918   0.71521236 
  198000       198000    1600.0359    1251.8837    348.15227    178.63931   -1864.7842    22563.376   0.71862121 
  200000       200000    1528.1381    1209.9777    318.16036    172.65948    924.74955    22571.921   0.71834919 
  202000       202000    1573.6572    1256.7095    316.94769    179.32794   -1127.1335    22483.638   0.72116981 
  204000       204000    1524.0778    1222.5195    301.55829    174.44915    250.84649    22404.984   0.72370151 
  206000       206000    1519.1513    1230.2537    288.89755     175.5528    167.54829    22052.872   0.73525667 
  208000       208000    1546.6608    1203.0112    343.64963    171.66538   -320.73249    22501.622   0.72059341 
  210000       210000    1557.1333    1253.4042     303.7291    178.85629     1241.559     22248.46   0.72879295 
  212000       212000    1568.7151    1251.6133    317.10182    178.60073     2343.809    22224.971    0.7295632 
  214000       214000    1575.3077    1239.0877    336.22007    176.81337    992.40249    22629.327   0.71652689 
  216000       216000    1525.9688    1207.0588       318.91    172.24296    276.01034    22759.935    0.7124151 
  218000       218000    1583.8129    1222.9188    360.89408    174.50613    1584.4429    22510.185   0.72031932 
  220000       220000    1545.7776    1192.8136    352.96404    170.21022    302.67755    22606.754   0.71724233 
  222000       222000    1570.0774    1216.2957    353.78162    173.56105   -1494.0449    22563.112   0.71862963 
  224000       224000    1561.6786     1216.213    345.46566    173.54923   -393.12752    22782.449   0.71171105 
  226000       226000    1586.3934    1223.7308    362.66257      174.622     337.3779     23031.27   0.70402202 
  228000       228000    1553.6032    1215.1657    338.43748    173.39979   -216.01914    23009.925    0.7046751 
  230000       230000    1527.0398    1219.8844    307.15545    174.07313    466.07319     22736.52   0.71314876 
  232000       232000    1576.9486    1246.1497    330.79893    177.82109    1321.5746    22699.602   0.71430858 
  234000       234000    1548.0654     1217.116    330.94941    173.67809     962.1552    22621.179   0.71678495 
  236000       236000    1530.7289    1240.3874     290.3415    176.99883   -797.45468    22468.037   0.72167055 
  238000       238000    1505.2306    1201.4977    303.73294    171.44942   -203.19241    22691.652   0.71455885 
  240000       240000     1590.432    1248.1556    342.27635    178.10733   -195.14431     22613.42    0.7170309 
  242000       242000    1595.2713    1240.4302     354.8411    177.00494    769.56704    22600.839   0.71743004 
  244000       244000    1534.2572    1215.3972    318.85997    173.43283    427.60924    22701.293   0.71425539 
  246000       246000    1584.1213    1246.0958    338.02555     177.8134    81.963691    22700.426   0.71428267 
  248000       248000    1518.5464    1227.2953    291.25103    175.13065   -606.46114    22713.445   0.71387326 
  250000       250000    1599.8407     1248.299    351.54164     178.1278   -758.55883    22824.185   0.71040964 
  252000       252000    1506.1649    1231.6865    274.47849    175.75724     501.0936    22690.802   0.71458562 
  254000       254000    1596.1933    1236.6998    359.49354    176.47263    336.90754    22655.958   0.71568463 
  256000       256000    1552.1716    1238.5185    313.65308    176.73215   -407.11137    22690.808   0.71458542 
  258000       258000    1533.4684    1198.5976    334.87079    171.03559   -387.49968    22400.155   0.72385752 
  260000       260000    1561.0172    1219.8146    341.20262    174.06317   -227.02646    22852.451   0.70953095 
  262000       262000    1594.2149    1250.3611    343.85385    178.42205   -750.32454    22647.679   0.71594626 
  264000       264000    1500.4535    1219.3382    281.11524    173.99519    931.64656    22525.057   0.71984374 
  266000       266000    1525.2074    1204.2569    320.95052    171.84314   -1182.2637    22682.407   0.71485011 
  268000       268000    1568.1831    1235.9097    332.27336    176.35989   -138.82397    22518.293   0.72005994 
  270000       270000    1530.3556    1212.8001    317.55546    173.06223   -848.83303    22573.716   0.71829205 
  272000       272000    1616.3355     1246.889    369.44648    177.92659   -631.18572    22445.677   0.72238947 
  274000       274000    1521.0101    1200.4248    320.58529    171.29631    1022.2012    22465.298   0.72175856 
  276000       276000    1530.3845    1217.3258    313.05873    173.70803    807.35945    22412.554   0.72345709 
  278000       278000    1573.5009    1234.0641     339.4368    176.09653    398.84867    22776.749   0.71188916 
  280000       280000    1574.2641    1222.4676    351.79653    174.44175    278.93725    22460.907   0.72189965 
  282000       282000    1549.2787    1239.2639    310.01489    176.83851   -179.02147    22578.233   0.71814836 
  284000       284000    1563.0307    1215.8993    347.13142    173.50448    232.63247    22805.493    0.7109919 
  286000       286000    1569.2801    1223.1843    346.09585    174.54401   -149.22349    22639.729   0.71619765 
  288000       288000    1527.8157    1209.2373     318.5784    172.55383   -585.50229     22765.23   0.71224938 
  290000       290000    1616.4439    1250.4488     365.9951    178.43456   -1991.4568    22781.559   0.71173886 
  292000       292000    1563.5239    1231.2499    332.27402    175.69495   -598.52818    22837.886   0.70998344 
  294000       294000    1511.6695    1200.9252    310.74427    171.36773    924.44325    22521.156    0.7199684 
  296000       296000    1546.3578     1251.507    294.85081    178.58556   -632.69975    22671.268   0.71520131 
  298000       298000    1556.6703     1206.918    349.75236    172.22287    192.90181    22841.723   0.70986419 
  300000       300000    1606.7121    1232.4332    374.27891     175.8638    150.87808    23035.137   0.70390383 
  302000       302000     1510.652    1225.7283    284.92376    174.90704   -282.93168    22557.463   0.71880961 
  304000       304000    1604.2354    1248.7643    355.47109     178.1942    399.90259    22793.751   0.71135817 
  306000       306000    1555.0434    1238.1407     316.9027    176.67824   -1107.4547     22815.13    0.7106916 
  308000       308000    1542.8207    1219.1115    323.70926    173.96284     364.2259    22526.647   0.71979292 
  310000       310000     1531.214    1242.5646     288.6494    177.30951    587.07716    22642.429   0.71611226 
  312000       312000    1600.3566    1238.2919    362.06468    176.69982    1861.4894    22603.309   0.71735163 
  314000       314000    1559.9044    1237.2675    322.63688    176.55363   -656.59211    22921.027   0.70740814 
  316000       316000    1620.6424    1255.3925    365.24988    179.14001    594.36997    22901.169   0.70802153 
  318000       318000    1507.1335    1210.3104    296.82314    172.70695    1281.5169    22720.164   0.71366213 
  320000       320000    1595.4306    1251.1707     344.2599    178.53758   -274.98549     22728.23   0.71340887 
  322000       322000    1572.5212    1231.1658    341.35537    175.68295    585.47872    22586.766   0.71787706 
  324000       324000    1480.4864    1188.9199    291.56652    169.65461    90.634183    22408.204   0.72359753 
  326000       326000     1553.713     1206.858    346.85503    172.21431   -5.1794039    22792.693   0.71139117 
  328000       328000    1558.4015    1246.5242    311.87735    177.87453    567.05717     22491.96   0.72090299 
  330000       330000    1587.1629    1254.6972    332.46569    179.04079    303.74533    22594.706   0.71762479 
  332000       332000    1488.0646     1164.162    323.90262    166.12175    260.44299    22591.765   0.71771819 
  334000       334000    1558.8758    1234.6628    324.21298    176.18196    -1342.035    22652.121   0.71580584 
  336000       336000    1522.8453    1220.8411    302.00419    174.20965    1012.5494    22653.607    0.7157589 
  338000       338000     1535.019    1236.9715     298.0475     176.5114    971.51231    22601.149    0.7174202 
  340000       340000    1543.9051     1241.707    302.19812    177.18714    1616.6701    22442.852   0.72248041 
  342000       342000    1541.2017    1237.3901    303.81157    176.57114    -1030.864    22296.773    0.7272138 
  344000       344000    1546.9744    1226.8759    320.09844     175.0708   -1083.9685    22763.936   0.71228986 
  346000       346000    1566.3781     1221.253    345.12519    174.26842    1182.1281    22675.718   0.71506099 
  348000       348000    1558.5588    1232.1327    326.42606    175.82092    -1499.732    22965.629   0.70603425 
  350000       350000     1554.835    1242.9386    311.89631    177.36289    -99.66987     22515.71   0.72014257 
  352000       352000    1597.8229    1273.3166    324.50635    181.69771   -93.476241    22397.374   0.72394742 
  354000       354000    1565.2947    1255.7567    309.53803    179.19198    -93.32902    22697.506   0.71437457 
  356000       356000    1533.7121    1204.8528     328.8593    171.92818   -201.28191    22476.197   0.72140855 
  358000       358000    1562.4497    1247.8913    314.55844    178.06962   -309.11189    22567.343   0.71849489 
  360000       360000    1590.7277    1279.1193    311.60842    182.52574   -479.91765     22128.25   0.73275208 
  362000       362000    1596.2728     1267.227    329.04584    180.82875   -6.2496413    22541.261   0.71932627 
  364000       364000    1505.7988    1204.1467    301.65209    171.82742    1609.1716    22527.075   0.71977923 
  366000       366000    1609.7593     1239.527    370.23233    176.87606   -545.27921     22521.79   0.71994815 
  368000       368000    1546.7842    1220.6955    326.08866    174.18887    -1296.397    22677.641   0.71500032 
  370000       370000    1612.3413     1250.803    361.53831     178.4851   -512.59009    22682.659   0.71484216 
  372000       372000       1531.7     1207.445    324.25506    172.29807    276.13704    22516.769   0.72010868 
  374000       374000    1511.9098    1199.3361    312.57363    171.14097   -11.834202     22500.65   0.72062455 
  376000       376000    1551.7166    1219.3999    332.31669      174.004   -1286.3565    22703.817   0.71417598 
  378000       378000    1488.5301     1197.015    291.51501    170.80976   -727.75192    22518.848    0.7200422 
  380000       380000    1553.5392    1216.8565    336.68278    173.64106    1499.5357    22465.572   0.72174976 
  382000       382000    1480.2315    1212.0557     268.1758    172.95601    23.327782    22203.019    0.7302845 
  384000       384000    1603.4283    1263.6167    339.81158    180.31357    851.08976    22342.358   0.72573006 
  386000       386000    1612.6537    1256.2551    356.39863     179.2631     250.0419    22422.991   0.72312033 
  388000       388000    1556.8437    1230.6897    326.15405    175.61501    790.10633    22558.661   0.71877142 
  390000       390000    1552.5388    1223.5657    328.97313    174.59844   -807.83438    22453.077   0.72215139 
  392000       392000    1475.1637    1239.3038    235.85986    176.84421   -320.90332    22099.444   0.73370718 
  394000       394000    1578.2125     1220.851    357.36154    174.21106    430.94793    22571.723   0.71835547 
  396000       396000    1561.8637     1248.873    312.99062    178.20971    644.81158    21975.714   0.73783817 
  398000       398000    1524.9419    1200.3356    324.60627    171.28359    354.76282      22415.7   0.72335556 
  400000       400000    1577.6616    1231.0563    346.60534    175.66732   -498.98985    22442.693   0.72248553 
  402000       402000    1481.5182    1208.5034    273.01483    172.44911    387.40614    22148.972   0.73206654 
  404000       404000    1524.9578    1216.8376    308.12023    173.63836   -1612.9743    22301.834   0.72704877 
  406000       406000    1541.2854    1226.5866    314.69876    175.02952     208.9681    22206.759   0.73016153 
  408000       408000    1547.2324    1243.1969    304.03556    177.39974    1297.9683    22431.333   0.72285143 
  410000       410000    1521.5287    1215.4467      306.082    173.43989   -1567.5104    22138.604   0.73240938 
  412000       412000    1605.1473    1236.9845    368.16278    176.51326    206.33747    22488.244   0.72102211 
  414000       414000     1560.551    1220.1153    340.43573    174.10608   -588.98675     22628.82   0.71654294 
  416000       416000    1583.5684    1229.1633    354.40508     175.3972   -301.41042    22401.367   0.72381836 
  418000       418000    1546.3331    1199.0877    347.24535    171.10552    1429.1819    22361.268   0.72511633 
  420000       420000    1555.1956    1219.3075    335.88804    173.99081    -1954.544    22706.208   0.71410079 
  422000       422000    1587.0785     1263.484    323.59449    180.29464    897.15994    22656.416   0.71567015 
  424000       424000    1524.3379    1202.6782    321.65971    171.61786   -103.48498    22632.447   0.71642809 
  426000       426000    1625.1222    1273.6915    351.43071    181.75122   -1619.8669    22853.324   0.70950382 
  428000       428000    1563.3007     1232.587    330.71374    175.88575    797.47756    22483.662   0.72116903 
  430000       430000     1546.715    1244.5247    302.19025    177.58922    1731.0689    22534.736   0.71953453 
  432000       432000    1533.4123    1212.8917    320.52054     173.0753   -437.23005    22556.696   0.71883403 
  434000       434000    1538.5218    1260.1545    278.36725    179.81953   -1343.8635    22654.624   0.71572678 
  436000       436000    1589.2527     1261.501    327.75178    180.01167    -586.1508    22416.761   0.72332131 
  438000       438000    1545.1434    1224.7272    320.41626    174.76418    830.17573    22574.564   0.71826507 
  440000       440000    1526.6292    1213.3481    313.28111    173.14043    627.42489     22531.16   0.71964874 
  442000       442000    1583.5384    1229.6506    353.88784    175.46673    302.88078    22449.877   0.72225433 
  444000       444000    1533.9846    1220.7495    313.23504    174.19658    6.7342414    22572.911   0.71831767 
  446000       446000    1544.9689    1232.6285    312.34042    175.89168   -345.60143    22739.736   0.71304789 
  448000       448000    1517.3471    1193.7647     323.5824    170.34595   -949.85838     22496.19   0.72076743 
  450000       450000    1566.6747    1216.5482    350.12656    173.59706    152.51701     22916.75   0.70754016 
  452000       452000    1541.5449    1195.4233    346.12162    170.58262   -739.81723    22859.535   0.70931107 
  454000       454000    1591.3506    1251.9314    339.41925    178.64612   -1690.9413    22773.465   0.71199182 
  456000       456000     1563.084    1264.2979    298.78612    180.41078    292.32473    22540.339   0.71935567 
  458000       458000    1553.8272     1239.631    314.19621     176.8909    597.37155    22847.186   0.70969444 
  460000       460000    1564.5876    1261.2845    303.30309    179.98078   -592.13352    22559.479   0.71874535 
  462000       462000     1533.381    1229.0353    304.34563    175.37894    862.78269     22631.61   0.71645458 
  464000       464000    1569.8096    1266.8923    302.91721      180.781     710.2439    22425.136   0.72305119 
  466000       466000    1550.4165    1242.4715      307.945    177.29623    1804.3552    22515.335   0.72015454 
  468000       468000    1533.3258    1240.1923    293.13357    176.97099   -184.72579    22374.128   0.72469956 
  470000       470000    1505.4478    1184.5064    320.94141    169.02482    35.891884    22502.677   0.72055963 
  472000       472000    1575.3917    1264.2667    311.12494    180.40633     560.6511    22580.303   0.71808252 
  474000       474000    1538.3413    1210.6793    327.66207    172.75959    462.31558    22839.647    0.7099287 
  476000       476000    1531.0185    1223.3525    307.66604    174.56802    442.45157    22355.695   0.72529711 
  478000       478000    1549.3475    1227.0114    322.33605    175.09014   -528.52076    22511.909   0.72026416 
  480000       480000    1563.1041    1243.8538    319.25031    177.49348   -352.95375    22586.873   0.71787366 
  482000       482000    1550.0084    1221.2022    328.80622    174.26118    1990.0581    22750.277   0.71271753 
  484000       484000    1552.6333     1252.699    299.93428    178.75566   -1664.6137    22674.605   0.71509605 
  486000       486000    1575.6009    1254.5314    321.06944    179.01714    314.74074    22506.754   0.72042913 
  488000       488000    1564.6677    1238.0906    326.57703     176.6711   -293.77562    22631.199   0.71646761 
  490000       490000     1459.221    1192.4683    266.75269    170.16096    1778.0333     22510.77   0.72030058 
  492000       492000    1583.5653     1237.765    345.80034    176.62463   -367.17743    22558.956   0.71876201 
  494000       494000    1543.9917    1242.3433    301.64833    177.27794    1181.7939    22571.622   0.71835871 
  496000       496000    1549.9734    1254.1789    295.79454    178.96683    -748.1021      22571.2   0.71837212 
  498000       498000    1536.9337    1215.1826    321.75119     173.4022    262.10678    22624.911   0.71666674 
  500000       500000    1523.6897    1232.8384    290.85132    175.92162   -746.51894    22126.827   0.73279918 
  502000       502000    1546.2792    1232.7608    313.51844    175.91055   -1050.8306    22352.144   0.72541232 
  504000       504000    1524.5288    1207.1333    317.39555     172.2536    1094.6944    22484.693   0.72113596 
  506000       506000    1555.3629    1226.9306    328.43231     175.0786    1119.0933    22299.002    0.7271411 
  508000       508000    1525.9818    1193.0031    332.97869    170.23727    857.50728    22651.581   0.71582294 
  510000       510000    1591.9238    1262.8893    329.03449    180.20978    96.462121    22533.217   0.71958306 
  512000       512000    1573.1391    1250.8886    322.25057    178.49732   -490.55895    22597.422   0.71753854 
  514000       514000    1582.7739    1267.2822    315.49171    180.83663    782.12805    22585.077   0.71793074 
  516000       516000    1474.7468    1203.2506    271.49626    171.69954   -141.48009    22402.288   0.72378861 
  518000       518000    1604.6846    1246.2693    358.41529    177.83817    553.61789    22290.982   0.72740272 
  520000       520000    1526.2727    1248.6213    277.65139    178.17378   -926.83182    22644.435   0.71604881 
  522000       522000    1498.1149    1216.8414    281.27349    173.63891   -2351.5031    22598.785   0.71749526 
  524000       524000    1560.0491      1248.16    311.88914    178.10796   -1078.3307    22449.095   0.72227948 
  526000       526000    1515.7567    1227.2393    288.51738    175.12265   -480.49622    22707.855   0.71404899 
  528000       528000    1544.1697    1238.3218    305.84791    176.70408    1191.6149    22592.743   0.71768712 
  530000       530000    1571.5889    1238.3314    333.25746    176.70546    -293.9732    22756.866   0.71251115 
  532000       532000    1580.7709    1237.6531    343.11781    176.60866    405.51165    22526.042   0.71981226 
  534000       534000    1506.6421    1213.1331    293.50906    173.10974   -585.00958    22618.047   0.71688423 
  536000       536000    1552.8882    1233.6897    319.19855    176.04309    676.49122    22433.855   0.72277014 
  538000       538000    1504.9941    1207.7975    297.19664    172.34837   -940.45847    22425.284    0.7230464 
  540000       540000    1534.5256    1225.1888    309.33678    174.83006   -167.81958    22618.137   0.71688135 
  542000       542000    1589.7209    1208.6275    381.09338    172.46681    -198.8231    22807.206   0.71093849 
  544000       544000    1559.1389    1204.9428    354.19609    171.94102   -627.72813    22700.631   0.71427623 
  546000       546000    1587.5182    1225.9246    361.59354    174.93505    346.01821    22681.483   0.71487922 
  548000       548000    1532.2008    1225.8174    306.38335    174.91975   -1425.1778    22624.395   0.71668308 
  550000       550000    1549.2712    1236.5436    312.72756    176.45035   -971.59925    22626.003   0.71663215 
  552000       552000    1525.2454    1212.4041    312.84126    173.00572   -672.51996    22255.745   0.72855439 
  554000       554000    1529.3854    1254.3609    275.02453    178.99281    222.48754    22395.715   0.72400104 
  556000       556000    1485.5713    1180.5648    305.00646    168.46237    277.66393    22272.268    0.7280139 
  558000       558000    1551.6818     1256.206    295.47584    179.25609   -119.17798    22241.651   0.72901608 
  560000       560000    1552.0822    1227.2387     324.8435    175.12256   -875.18661    22495.814   0.72077949 
  562000       562000    1517.8669    1231.8225    286.04442    175.77666    722.49413    22471.567    0.7215572 
  564000       564000    1521.1302    1207.3871    313.74313    172.28981   -160.71147     22616.96   0.71691868 
  566000       566000    1526.8726    1223.5824    303.29018    174.60083    464.95747    22569.784   0.71841719 
  568000       568000    1583.1861    1267.7681    315.41794    180.90597    646.01918    22629.489   0.71652173 
  570000       570000    1580.8764    1230.0489    350.82747    175.52357     -533.095    22656.221   0.71567633 
  572000       572000    1509.2322    1202.1979    307.03426    171.54934    71.378259    22536.659   0.71947314 
  574000       574000    1531.4471    1213.7141    317.73306    173.19265     94.43653    22670.055   0.71523959 
  576000       576000    1582.5651      1231.79    350.77513    175.77202    248.33167    22787.668   0.71154807 
  578000       578000    1569.0536    1237.7074    331.34625    176.61641   -1330.7561    22609.466    0.7171563 
  580000       580000    1539.0462    1216.2225    322.82371    173.55059     549.5091    22676.367   0.71504051 
  582000       582000    1576.7393    1240.6727    336.06659    177.03955   -260.38488    22929.619   0.70714305 
  584000       584000    1555.2603    1223.8373    331.42303     174.6372   -1384.4272    22679.245   0.71494977 
  586000       586000    1541.4844    1247.2328    294.25159    177.97565   -1872.8544    22377.214   0.72459964 
  588000       588000     1565.235    1213.9945    351.24053    173.23266    128.58518    22565.452   0.71855511 
  590000       590000    1570.5176    1217.1292    353.38837    173.67998    128.23593    22367.172   0.72492494 
  592000       592000    1598.4484      1246.88    351.56844     177.9253    184.36708    22378.653   0.72455304 
  594000       594000    1546.3144    1212.0436    334.27084    172.95428    1036.1215    22344.322   0.72566626 
  596000       596000    1540.3373    1233.8074    306.52992     176.0599   -438.18142    22507.388   0.72040883 
  598000       598000    1593.1268    1235.0176    358.10917    176.23259    1.7202378    22636.065    0.7163136 
  600000       600000    1519.7581    1229.3779    290.38016    175.42782    833.16689    22673.201   0.71514035 
  602000       602000    1513.6619    1223.5439    290.11801    174.59532   -752.68437    22538.159   0.71942526 
  604000       604000    1553.0204    1198.5645    354.45588    171.03086    -350.9954    22889.588   0.70837978 
  606000       606000    1606.9627    1243.8779    363.08477    177.49693   -1090.8911    22655.133   0.71571068 
  608000       608000    1513.0189    1185.7463    327.27261    169.20175   -100.51085    22739.196   0.71306483 
  610000       610000     1581.981    1236.6385    345.34257    176.46388    2181.6007    22494.922   0.72080807 
  612000       612000    1598.7214    1271.1698    327.55156    181.39138    936.17142    22501.968   0.72058234 
  614000       614000    1498.7168    1186.8665    311.85036    169.36159    593.01766    22480.798   0.72126093 
  616000       616000    1569.3594    1244.2047    325.15473    177.54355   -364.47681    22729.452    0.7133705 
  618000       618000    1579.8666     1227.182    352.68458    175.11447   -186.84669    22694.535   0.71446807 
  620000       620000    1590.2727    1266.2169    324.05584    180.68461    283.65765    22616.295   0.71693976 
  622000       622000    1517.1953    1222.7127    294.48255    174.47673    2288.4355    22121.413   0.73297854 
  624000       624000    1531.4213    1229.5961    301.82515    175.45896     328.5928    22312.875   0.72668901 
  626000       626000     1540.127    1216.8733    323.25369    173.64347    590.16879    22486.939   0.72106394 
  628000       628000    1540.7956    1239.3332    301.46244    176.84841    1035.3888    22395.125   0.72402012 
  630000       630000    1542.2469    1219.7271    322.51986    174.05068   -381.48428    22514.069   0.72019504 
  632000       632000    1548.1189    1218.4751    329.64381    173.87203   -51.259853    22513.555   0.72021149 
  634000       634000    1556.0377    1215.9913     340.0464     173.5176    144.55454    22848.574   0.70965133 
  636000       636000    1582.0251    1231.1473     350.8778     175.6803   -59.028628    22754.503   0.71258515 
  638000       638000    1511.6012    1207.0062    304.59501    172.23546   -151.67031    22661.889   0.71549734 
  640000       640000     1554.376    1234.5032    319.87278    176.15919   -1208.5712     22505.67   0.72046381 
  642000       642000    1523.5246    1209.7974    313.72719    172.63375   -705.32612    22638.831   0.71622608 
  644000       644000     1561.554    1208.8206    352.73337    172.49437    753.20027    22873.921   0.70886494 
  646000       646000    1607.2283    1234.7765    372.45181    176.19818   -1122.1085    22886.299   0.70848158 
  648000       648000    1572.0789    1253.8533    318.22561    178.92038   -858.08671    22846.359   0.70972014 
  650000       650000    1527.9985    1193.5883    334.41026    170.32077     492.1832    22648.194   0.71592998 
  652000       652000    1541.4124    1205.5298     335.8826    172.02479   -712.44564    22708.517   0.71402818 
  654000       654000    1573.9606    1257.4558    316.50479    179.43444   -936.93115    22773.405    0.7119937 
  656000       656000    1543.7952    1204.7092    339.08602    171.90768   -436.84124    22631.805   0.71644842 
  658000       658000    1547.4772    1219.7078    327.76944    174.04793    340.44268    22851.955   0.70954634 
  660000       660000    1534.8293    1247.8745    286.95486    178.06722   -348.79979    22747.332   0.71280979 
  662000       662000    1570.4439     1210.093    360.35087    172.67594   -220.81334    22840.038   0.70991656 
  664000       664000    1570.2402    1252.9355    317.30468    178.78941    1928.8309    22726.191   0.71347288 
  666000       666000    1576.0356    1253.1396    322.89602    178.81853    1319.0425    22507.941   0.72039113 
  668000       668000    1548.0029    1216.6431    331.35981    173.61061    652.67279    22728.097   0.71341304 
  670000       670000    1535.2734    1203.7512    331.52225    171.77098    1451.0737     23042.73   0.70367186 
  672000       672000    1591.4752      1222.64    368.83526    174.46634   -365.43804    22586.173   0.71789588 
  674000       674000    1542.1859    1235.2978    306.88813    176.27257   -1072.8733    22655.344   0.71570404 
  676000       676000    1563.9189    1248.6344    315.28446    178.17566   -1410.2195     22402.56   0.72377983 
  678000       678000    1538.3677     1180.265    358.10264    168.41959   -322.92453    22819.193   0.71056504 
  680000       680000    1537.6972    1218.9303    318.76682    173.93699    781.29152    22469.671   0.72161807 
  682000       682000    1531.5192    1234.6321    296.88714    176.17758    354.59634    22516.903    0.7201044 
  684000       684000    1538.8784     1245.104    293.77442    177.67187   -144.79751    22408.738   0.72358028 
  686000       686000    1546.8286    1230.1325    316.69612     175.5355    314.86795    22464.352   0.72178894 
  688000       688000    1553.7967    1235.7408    318.05587    176.33578    699.74952    22591.681   0.71772086 
  690000       690000    1553.8492     1231.541    322.30819    175.73649   -1670.2939    22610.771   0.71711492 
  692000       692000    1569.1972    1253.5721    315.62511    178.88024   -316.53089    22276.168   0.72788646 
  694000       694000    1532.6951     1190.242     342.4531    169.84327    679.18973     22649.01   0.71590417 
  696000       696000    1491.4652     1179.633    311.83219    168.32941   -1012.3391    22369.764   0.72484094 
  698000       698000    1547.2691    1221.2184    326.05071    174.26349    96.092336    22343.673   0.72568735 
  700000       700000    1518.7712     1229.162    289.60916    175.39702    546.05123    22133.927   0.73256412 
  702000       702000    1584.6089    1255.4511    329.15782    179.14838   -365.08282    22670.227   0.71523418 
  704000       704000    1548.2735    1209.3012    338.97231    172.56295    -1924.492    22786.277    0.7115915 
  706000       706000    1579.9696    1249.3732    330.59636    178.28108    149.49639    22749.676   0.71273635 
  708000       708000    1533.7857    1217.5074    316.27828    173.73395    251.15898     22486.81   0.72106809 
  710000       710000    1497.7506    1185.5991    312.15145    169.18075    303.15201    22848.071   0.70966694 
  712000       712000    1584.3535    1203.4478    380.90575    171.72769    1117.9032    22725.803   0.71348505 
  714000       714000    1531.7179    1218.2892    313.42869     173.8455   -293.53054    22702.506   0.71421723 
  716000       716000    1523.0122    1210.7631    312.24915    172.77155   -79.694659    22543.611   0.71925128 
  718000       718000    1577.6473    1224.0495     353.5978    174.66748   -342.74038    22853.259   0.70950585 
  720000       720000    1569.8851    1226.7741    343.11091    175.05628   -1053.0825    22560.187   0.71872281 
  722000       722000    1512.4012    1155.6291    356.77214    164.90413   -1033.4029    22694.289   0.71447582 
  724000       724000    1571.0368    1215.8665    355.17037    173.49979    1078.4023    22661.423   0.71551203 
  726000       726000    1511.9172    1197.0656    314.85151    170.81698   -941.99072    22789.899   0.71147841 
  728000       728000    1560.2766    1269.8792    290.39736    181.20721    1096.7654    22213.686   0.72993383 
  730000       730000    1584.2017    1235.2074    348.99427    176.25968    29.137471    22197.227   0.73047508 
  732000       732000    1536.5093    1198.9795    337.52979    171.09008   -662.46916    22347.761   0.72555462 
  734000       734000    1562.8691    1233.4503    329.41873    176.00894   -774.57695    22550.365   0.71903585 
  736000       736000     1533.537    1212.5523    320.98473    173.02687   -79.380765     22261.92   0.72835233 
  738000       738000    1567.3817    1266.0258    301.35589    180.65734    629.33206    22340.282   0.72579752 
  740000       740000    1578.2971    1225.7704    352.52672    174.91305   -785.76837    22513.592   0.72021031 
  742000       742000    1548.5903    1229.7649    318.82533    175.48305   -130.57964    22556.826   0.71882991 
  744000       744000    1570.0744    1226.4697    343.60467    175.01284   -323.91933    22410.054   0.72353777 
  746000       746000    1559.8583    1225.2381    334.62022    174.83708   -1453.1261    22677.607   0.71500142 
  748000       748000     1561.743    1227.9422    333.80081    175.22295   -827.06883    22671.818   0.71518397 
  750000       750000    1552.9828    1244.5641    308.41868    177.59484    739.87118    22333.071   0.72603186 
  752000       752000    1512.9769    1189.0434    323.93348    169.67223   -2464.6925    22602.999   0.71736149 
  754000       754000    1580.3447     1249.635     330.7097    178.31844    339.51224    22517.318   0.72009111 
  756000       756000    1568.2714    1230.0879    338.18355    175.52913   -651.96301    22893.889   0.70824668 
  758000       758000    1580.6393    1263.9095    316.72979    180.35536    633.14897    22771.364   0.71205752 
  760000       760000    1518.3656       1210.4    307.96561    172.71974    1492.3606     22489.97   0.72096677 
  762000       762000     1550.383     1220.416    329.96703    174.14899    721.23127    22729.288   0.71337567 
  764000       764000    1580.9487    1222.4729    358.47584     174.4425   -674.49787    22792.785   0.71138832 
  766000       766000    1529.1251    1239.5527     289.5724    176.87973   -356.78763     22434.31   0.72275549 
  768000       768000    1591.7909    1235.9256    355.86532    176.36215    -1573.728    22701.483    0.7142494 
  770000       770000    1567.1197     1239.388    327.73168    176.85623   -232.42893    22599.692   0.71746645 
  772000       772000    1513.0782    1222.8022    290.27601    174.48949   -380.38757    22870.657   0.70896611 
  774000       774000    1509.4675    1223.1179     286.3496    174.53454   -1234.3277    22560.586   0.71871008 
  776000       776000    1605.8844    1261.2476    344.63681    179.97551    -874.7464    22644.573   0.71604444 
  778000       778000    1532.4489    1213.5364    318.91248    173.16729    175.31026    22714.997   0.71382449 
  780000       780000    1559.4294    1234.2166    325.21281    176.11828    166.52228     22624.77   0.71667119 
  782000       782000    1577.1655    1252.9922    324.17326     178.7975    682.91475    22536.132   0.71948996 
  784000       784000    1541.1261    1232.8085    308.31756    175.91736    173.57371     22395.59   0.72400508 
  786000       786000    1559.1697    1216.3215    342.84817    173.56472   -380.77238    22442.715   0.72248482 
  788000       788000    1493.5363    1213.2677    280.26858    173.12896   -96.053208    22665.393   0.71538672 
  790000       790000    1553.5631    1235.2983    318.26485    176.27264    -60.36619    22662.904   0.71546527 
  792000       792000    1525.2489    1226.8357    298.41312    175.06506   -1759.4576    22511.886   0.72026488 
  794000       794000    1490.0788    1201.5871    288.49163    171.46218     -367.382    22482.795   0.72119686 
  796000       796000    1510.2729    1211.8821    298.39073    172.93124    128.39713    22303.194   0.72700443 
  798000       798000    1516.5109    1189.1406    327.37026    169.68611   -693.21238    22763.208   0.71231265 
  800000       800000     1572.263    1258.2853    313.97766    179.55281    428.22842    22451.237    0.7222106 
  802000       802000    1575.7687     1233.164    342.60468    175.96809    545.52594    22419.098    0.7232459 
  804000       804000    1526.0471    1201.7784    324.26861    171.48948    140.02081    22479.073   0.72131627 
  806000       806000    1545.0932    1247.8446    297.24864    178.06295    551.91917    22544.411   0.71922575 
  808000       808000    1569.2306    1255.5915    313.63919     179.1684    955.82836    22609.838   0.71714449 
  810000       810000    1539.9572     1227.743    312.21424    175.19452    248.16337    22596.376   0.71757175 
  812000       812000    1608.4165    1227.5863    380.83019    175.17217    377.05598    22586.686   0.71787961 
  814000       814000    1563.8228    1227.2574    336.56541    175.12523    210.29088    22653.337   0.71576743 
  816000       816000    1550.8853    1251.2067    299.67861    178.54272    591.76834    22623.672   0.71670599 
  818000       818000    1560.7199    1227.2494    333.47047     175.1241    428.59588    22747.835   0.71279403 
  820000       820000    1571.8278    1262.7132     309.1146    180.18465   -360.95722    22767.305   0.71218445 
  822000       822000     1543.754    1205.6682    338.08582    172.04454    522.45839    22548.015   0.71911078 
  824000       824000    1509.5841    1222.1397     287.4444    174.39495    204.60864    22323.769   0.72633437 
  826000       826000    1540.3301    1214.7018    325.62828    173.33359   -1031.7813    23061.351   0.70310369 
  828000       828000    1546.6336    1241.8585    304.77502    177.20876    -76.37628    22489.534   0.72098075 
  830000       830000    1532.4097    1220.2382    312.17148    174.12362   -10.335974    22518.822   0.72004304 
  832000       832000    1520.0507    1208.0354    312.01535    172.38232    222.73694    22479.572   0.72130025 
  834000       834000    1561.5483    1236.3879    325.16034    176.42813    923.84227    22470.599   0.72158827 
  836000       836000    1509.3379    1229.6326    279.70532    175.46417    351.13322    22506.507   0.72043702 
  838000       838000    1563.9216    1256.2904    307.63117    179.26814   -141.57747    22612.346   0.71706497 
  840000       840000    1533.8499    1195.5256    338.32432    170.59722    570.26349     22640.66   0.71616822 
  842000       842000     1556.347    1237.7285    318.61844    176.61943     159.2241    22858.875   0.70933155 
  844000       844000    1548.0954    1211.9782    336.11727    172.94494   -533.23277    22455.874   0.72206145 
  846000       846000    1586.0142    1258.2192    327.79501    179.54337    418.56091    22423.085   0.72311731 
  848000       848000    1558.4897    1223.4463    335.04338    174.58141    1436.3922    22744.247   0.71290647 
  850000       850000    1520.7809    1233.3435    287.43749    175.99369    10.046125    22603.117   0.71735772 
  852000       852000    1590.6888    1230.3334    360.35539    175.56417   -26.585846    22609.115   0.71716742 
  854000       854000    1531.4564    1250.3179    281.13849    178.41589    665.76357    22295.727    0.7272479 
  856000       856000    1517.0335    1230.2258    286.80771    175.54882   -716.28054    22200.785   0.73035801 
  858000       858000     1490.961    1203.1055    287.85555    171.67884    328.39589    22200.534   0.73036624 
  860000       860000    1510.4688     1230.579    279.88982    175.59921   -207.57563    22248.176   0.72880226 
  862000       862000    1592.5418    1256.0345     336.5073    179.23162   -508.09357    22474.626   0.72145899 
  864000       864000    1538.0386    1233.9992    304.03935    176.08727    37.390707     22623.48   0.71671206 
  866000       866000    1548.3291    1236.8852    311.44394    176.49909    -746.2904    22088.716   0.73406354 
  868000       868000    1527.6516    1264.8897    262.76187    180.49523    14.440083    22092.081   0.73395173 
  870000       870000    1508.9222    1218.1244    290.79781    173.82198    1585.3027    22480.256   0.72127831 
  872000       872000    1580.5771    1252.3325    328.24454    178.70336    191.12819    22401.888   0.72380152 
  874000       874000    1501.2189    1212.8435    288.37546    173.06842   -414.40444    22458.726   0.72196977 
  876000       876000    1527.0368    1215.6854    311.35143    173.47395   -944.48405    22286.197   0.72755888 
  878000       878000      1505.16    1210.1939    294.96615    172.69033   -48.702757    22332.746   0.72604243 
  880000       880000    1529.1974    1211.4874    317.70996    172.87491   -1436.8485    22483.628   0.72117014 
  882000       882000    1577.9824    1221.4378    356.54465     174.2948    1183.6037    22674.701   0.71509304 
  884000       884000    1472.4339    1189.5633    282.87062    169.74642    1029.7504    22363.117   0.72505641 
  886000       886000    1574.8407    1245.7326    329.10811    177.76158    1428.2348     22443.02   0.72247502 
  888000       888000    1541.1134    1216.3105    324.80296    173.56315    -297.2212    22694.201    0.7144786 
  890000       890000    1564.2444    1232.2927    331.95168    175.84375   -306.58564     22710.07   0.71397935 
  892000       892000    1549.8999    1208.8425    341.05744    172.49749    641.07117     22783.91   0.71166544 
  894000       894000     1558.722    1207.7891    350.93282    172.34718    198.13604    22678.974   0.71495831 
  896000       896000    1532.7115    1242.3271     290.3844    177.27563    -555.1726    22685.716   0.71474584 
  898000       898000    1532.9842    1225.4639    307.52027    174.86931   -14.302707    22616.385   0.71693689 
  900000       900000    1587.4539    1215.1262     372.3277    173.39416   -1549.5172    22688.948   0.71464401 
  902000       902000    1515.9611    1229.1739    286.78719    175.39871   -1020.4478    22347.413    0.7255659 
  904000       904000    1534.7704    1218.4938    316.27654     173.8747    176.72181    22416.059   0.72334395 
  906000       906000    1500.0327    1196.2654    303.76729    170.70278   -710.66495    22589.646   0.71778552 
  908000       908000    1552.1662    1235.8965    316.26973      176.358    300.98833    22706.526   0.71409078 
  910000       910000    1617.8601    1263.5657    354.29444    180.30629   -1604.2852    22923.585    0.7073292 
  912000       912000    1574.4332    1246.7469     327.6863    177.90632   -282.18215     22824.28   0.71040669 
  914000       914000    1531.0779    1199.9807    331.09715    171.23295    441.73448    22780.828   0.71176172 
  916000       916000    1579.7534    1259.7968    319.95664    179.76849   -584.48537    22405.223   0.72369381 
  918000       918000    1545.6011    1245.5394    300.06175    177.73401    1053.1208    22598.885   0.71749208 
  920000       920000     1577.995    1240.7147    337.28037    177.04554   -46.342588    22686.521   0.71472046 
  922000       922000     1554.652    1223.2928    331.35924     174.5595     992.7409    22595.864   0.71758799 
  924000       924000    1549.8542    1216.9199    332.93438     173.6501    914.70324    22687.149   0.71470068 
  926000       926000    1580.3814    1285.5402    294.84123    183.44198    782.13558    22312.985   0.72668541 
  928000       928000    1550.2627    1222.1907    328.07193    174.40224   -601.00123    22617.706   0.71689503 
  930000       930000    1557.0417    1229.5385    327.50325    175.45073    1068.5275    22399.335   0.72388403 
  932000       932000     1485.779    1178.0768    307.70218    168.10733    1013.9873    22352.857   0.72538918 
  934000       934000    1559.5462    1236.1532    323.39292    176.39464   -751.14683    22764.253   0.71227996 
  936000       936000    1492.5632    1215.1686    277.39456    173.40021   -1653.4095    22890.216   0.70836032 
  938000       938000    1631.2455     1246.585    384.66048    177.88321    800.11892    22697.277   0.71438176 
  940000       940000    1529.5569    1223.0107    306.54611    174.51925   -382.54292    22467.219   0.72169685 
  942000       942000     1505.585    1216.7967    288.78826    173.63253   -460.77169    22577.475   0.71817246 
  944000       944000    1558.9504    1250.4281    308.52232    178.43161   -386.53844        22575   0.71825121 
  946000       946000    1523.6678    1221.2505    302.41733    174.26807   -418.24997    22828.628   0.71027136 
  948000       948000    1541.2768    1210.4218    330.85501    172.72286   -171.20726    22714.146   0.71385123 
  950000       950000    1565.0765    1209.9593    355.11716    172.65686   -961.47928     22807.49   0.71092965 
  952000       952000     1552.296    1234.1963    318.09971    176.11538     -726.091    22772.518   0.71202143 
  954000       954000    1575.1348    1228.6292    346.50563    175.32098   -50.128393    22901.203   0.70802049 
  956000       956000    1515.3488    1221.3336    294.01522    174.27993      145.534    22594.006   0.71764702 
  958000       958000    1534.6647    1204.7795    329.88524    171.91772   -312.32809     22420.82   0.72319037 
  960000       960000     1543.222    1222.9925    320.22952    174.51665    2044.8287    22242.707   0.72898147 
  962000       962000    1586.8277    1223.7602     363.0675    174.62619    1411.6733    22625.605   0.71664475 
  964000       964000    1583.2173    1228.2988    354.91846    175.27384    705.57664    22583.417   0.71798351 
  966000       966000    1519.9442    1219.7285    300.21578    174.05088    1528.3771    22611.655   0.71708686 
  968000       968000    1557.2489    1241.0099      316.239    177.08767    1014.4474    22576.137   0.71821503 
  970000       970000    1534.0277    1208.8373    325.19042    172.49675    1489.4484    22202.958   0.73028651 
  972000       972000    1579.6102    1210.2776    369.33258    172.70228   -1338.8344    22766.101   0.71222213 
  974000       974000    1487.9162    1208.7587    279.15744    172.48554   -2.0098953    22546.173   0.71916954 
  976000       976000    1524.3419    1194.3754    329.96653    170.43309    -408.0758    22478.042   0.72134933 
  978000       978000    1630.1415    1266.4459    363.69565    180.71729   -1642.0402    22865.917   0.70911309 
  980000       980000    1533.2886    1227.2398    306.04885    175.12272   -514.34157    22762.568   0.71233269 
  982000       982000    1536.5438    1224.9493    311.59453    174.79587    1257.4703    22535.208   0.71951946 
  984000       984000     1647.703    1268.2199     379.4831    180.97044   -1065.0343    22984.395    0.7054578 
  986000       986000    1438.3795     1159.129    279.25056    165.40355   -1070.0284    22598.547   0.71750281 
  988000       988000    1563.7179    1215.3667    348.35119    173.42847     454.9202    22398.881   0.72389872 
  990000       990000    1558.0292    1201.4034    356.62586    171.43595    615.29451    22564.246   0.71859352 
  992000       992000    1603.6844    1249.8409    353.84348    178.34783    151.62387    23024.341   0.70423386 
  994000       994000    1545.7425    1231.8178    313.92471    175.77598    330.32434    22634.785   0.71635409 
  996000       996000    1497.8974    1194.9505    302.94695    170.51515    345.83764    22528.713    0.7197269 
  998000       998000    1495.2396     1208.181    287.05857     172.4031   -508.69404    22536.882   0.71946603 
 1000000      1000000    1568.3809    1229.8284    338.55253     175.4921    377.35139    22580.997   0.71806045 
 1002000      1002000    1559.5914    1252.3691    307.22222    178.70859    -784.8634    22815.531   0.71067911 
 1004000      1004000    1544.3553    1223.8893    320.46598    174.64462    28.702682    22774.364   0.71196372 
 1006000      1006000    1551.0305    1231.2821    319.74833    175.69955   -270.12938    22662.533   0.71547699 
 1008000      1008000    1544.7223    1221.7979    322.92442    174.34618   -170.35735    22570.502   0.71839434 
 1010000      1010000     1580.053    1242.8958    337.15716    177.35678    904.95412    22613.323   0.71703399 
 1012000      1012000    1587.5433    1221.0665    366.47682    174.24182   -1062.7368    22808.552   0.71089654 
 1014000      1014000    1582.3325    1208.8568    373.47565    172.49953   -49.354906     22509.03   0.72035628 
 1016000      1016000    1539.3002    1244.8255    294.47468    177.63215    -695.9809    22357.625    0.7252345 
 1018000      1018000    1561.5117    1269.0652    292.44655    181.09105    35.593915    22260.159   0.72840994 
 1020000      1020000    1592.9134    1253.8876    339.02581    178.92526    1695.6986    22517.174   0.72009575 
 1022000      1022000     1528.772    1217.7586    311.01344    173.76979    814.32242    22427.768   0.72296634 
 1024000      1024000    1511.1156    1191.5341    319.58147    170.02765   -183.16811    22541.092   0.71933166 
 1026000      1026000    1535.2452    1210.7443    324.50088    172.76888    895.89181    22428.312   0.72294877 
 1028000      1028000    1522.4895    1245.5732    276.91634    177.73883    522.55279    22353.628   0.72536417 
 1030000      1030000    1511.4897    1213.0186    298.47112    173.09341    727.77998    22260.155   0.72841006 
 1032000      1032000    1503.7029    1223.2507    280.45215     174.5535    722.53037     22296.83   0.72721193 
 1034000      1034000    1526.2894    1197.8489    328.44049    170.92875   -959.08988    22554.354   0.71890869 
 1036000      1036000    1545.6013    1222.3205    323.28079    174.42076    652.82685    22264.014   0.72828381 
 1038000      1038000    1504.9622    1238.6277    266.33453    176.74774   -1305.0505    22304.472   0.72696278 
 1040000      1040000     1559.106    1228.7831    330.32286    175.34295   -77.029002    22375.864   0.72464335 
 1042000      1042000    1506.9816    1179.8908    327.09083    168.36619    470.91355    22537.598   0.71944317 
 1044000      1044000    1545.0964     1233.175    311.92145    175.96965    803.38812    22442.664   0.72248648 
 1046000      1046000    1644.9282     1260.382    384.54625    179.85199    71.551833    22895.321   0.70820237 
 1048000      1048000    1577.0461    1240.5514    336.49469    177.02224   -1612.8258    22738.422    0.7130891 
 1050000      1050000    1583.7839    1241.2299      342.554    177.11906   -278.45515    22984.797   0.70544546 
 1052000      1052000     1561.967    1222.4078    339.55924    174.43321     755.1976      22837.3   0.71000165 
 1054000      1054000    1600.5477     1239.492    361.05572    176.87106   -2340.5054    22760.257   0.71240501 
 1056000      1056000    1581.0166    1237.0517    343.96487    176.52285    1292.2519    22716.044   0.71379157 
 1058000      1058000    1551.3845    1235.7128    315.67163     176.3318    27.982629    22822.798   0.71045281 
 1060000      1060000    1557.0011    1241.5041    315.49703    177.15819   -358.20095    22813.009   0.71075766 
 1062000      1062000    1529.6851     1210.737    318.94813    172.76783    331.46252    22434.847   0.72273822 
 1064000      1064000    1527.6823    1218.5415    309.14076    173.88151   -838.72205    22444.996   0.72241141 
 1066000      1066000    1520.4456    1225.7295    294.71615    174.90721    456.33985    22425.691   0.72303328 
 1068000      1068000    1558.3459    1229.4307    328.91517    175.43535     1024.894    22413.899   0.72341365 
 1070000      1070000    1545.1454    1251.4856     293.6598     178.5825   -91.959598    22455.872   0.72206151 
 1072000      1072000    1522.7415    1195.6127    327.12884    170.60964   -383.42682    22416.736   0.72332211 
 1074000      1074000    1569.0636    1216.6037    352.45985      173.605    2374.7738    22498.018   0.72070888 
 1076000      1076000    1548.6005    1223.0563    325.54423    174.52575    547.23497     22599.69   0.71746651 
 1078000      1078000    1555.0103    1247.0219    307.98845    177.94555   -548.39855    22779.659   0.71179822 
 1080000      1080000     1504.119    1164.9447    339.17426    166.23344   -1463.8911    22682.471   0.71484809 
 1082000      1082000    1545.5641    1195.9559    349.60815    170.65863    299.07769    22811.591   0.71080185 
 1084000      1084000    1550.3584     1212.447     337.9114    173.01185    471.42976    22720.288   0.71365825 
 1086000      1086000    1587.4079    1246.6058    340.80216    177.88618    869.21045    22269.772    0.7280955 
 1088000      1088000    1585.0257    1241.4898    343.53587    177.15615   -931.83889    22581.858   0.71803309 
 1090000      1090000    1562.5713    1241.0725    321.49873     177.0966   -2244.6133    22524.332   0.71986691 
 1092000      1092000    1532.7086    1255.6433     277.0653    179.17581    74.232596    22401.935       0.7238 
 1094000      1094000    1517.6823    1223.1485    294.53376    174.53891   -1236.5518    22290.194   0.72742844 
 1096000      1096000    1524.2246    1191.1481    333.07653    169.97256   -375.04432    22621.848   0.71676378 
 1098000      1098000    1449.8567    1180.5856    269.27108    168.46533   -1023.4565    22268.453   0.72813865 
 1100000      1100000    1490.2451    1172.9158    317.32937    167.37088   -940.28824    22202.778   0.73029243 
 1102000      1102000    1547.4612    1232.2058    315.25539    175.83135   -564.01455     22308.05   0.72684619 
 1104000      1104000    1596.4724    1273.4579    323.01447    181.71788    155.12721      22712.6   0.71389982 
 1106000      1106000    1562.9516    1243.1874    319.76425    177.39839   -1668.7704    22453.906   0.72212473 
 1108000      1108000    1544.2238     1234.188    310.03581    176.11421   -795.16482    22626.622   0.71661253 
 1110000      1110000    1591.1525    1248.1304    343.02217    178.10373   -1701.2226    22832.192    0.7101605 
 1112000      1112000    1543.3511    1199.7121    343.63901    171.19462    1570.1207    22635.452     0.716333 
 1114000      1114000    1568.3479    1233.6473    334.70056    176.03705    1114.6292    22623.421   0.71671393 
 1116000      1116000    1521.7966    1199.6285    322.16806    171.18269     528.3224     22602.79   0.71736813 
 1118000      1118000    1541.6576    1224.8092    316.84848    174.77588   -1725.5835    22571.662   0.71835741 
 1120000      1120000    1504.5484     1199.908    304.64034    171.22257   -2424.2523      22555.1   0.71888491 
 1122000      1122000    1559.7825    1219.9891    339.79336    174.08807    562.54982     22773.28   0.71199762 
 1124000      1124000    1614.7002    1262.0443    352.65591     180.0892    489.22645    22424.871   0.72305971 
 1126000      1126000    1527.5836    1226.9968    300.58685    175.08805   -688.82037    22298.032   0.72717273 
 1128000      1128000    1509.5002    1194.2929    315.20722    170.42132    1390.0598    22595.585   0.71759688 
 1130000      1130000    1586.1525    1264.9355      321.217    180.50177   -1261.6287    22601.843   0.71739818 
 1132000      1132000    1518.4979    1202.5455    315.95241    171.59893    1894.9225    22527.127   0.71977759 
 1134000      1134000    1562.7896    1225.6724    337.11727    174.89906   -789.79941    22608.984   0.71717158 
 1136000      1136000    1508.6639    1195.8257    312.83815    170.64004   -335.55323     22642.23   0.71611854 
 1138000      1138000    1492.4051    1213.2436    279.16157    173.12551   -730.63347    22607.125   0.71723057 
 1140000      1140000    1607.5896    1267.1752    340.41447    180.82135     615.3986    22813.568   0.71074025 
 1142000      1142000    1531.3338    1181.3732    349.96062    168.57772   -460.62604    23027.669   0.70413211 
 1144000      1144000    1584.5652    1239.5211    345.04406    176.87523    620.84428     22654.82   0.71572057 
 1146000      1146000    1563.7558    1201.4714    362.28431    171.44567    71.421356    23032.771   0.70397613 
 1148000      1148000    1582.1303    1260.6363    321.49393    179.88829    654.38875    22643.347   0.71608322 
 1150000      1150000    1508.2857     1200.927     307.3587    171.36798   -1244.1488     22768.18   0.71215711 
 1152000      1152000    1521.4235    1217.5982    303.82532    173.74689    1918.8683    22281.047   0.72772707 
 1154000      1154000    1553.2028    1240.3112    312.89158    176.98796    1762.5203     22482.73   0.72119894 
 1156000      1156000    1504.1411    1203.2093    300.93173    171.69366    1451.1862    22471.379   0.72156324 
 1158000      1158000    1596.9553    1230.3741    366.58123    175.56997    70.354644    22710.183   0.71397579 
 1160000      1160000    1592.1259    1237.9062    354.21974    176.64477    -524.4434    22895.932   0.70818347 
 1162000      1162000    1554.0851     1251.973    302.11206    178.65207    485.03002    22686.559   0.71471927 
 1164000      1164000    1554.9014    1245.4246    309.47675    177.71763   -340.97253    22873.226   0.70888648 
 1166000      1166000    1542.3145    1244.7024    297.61213    177.61457    123.52742    22767.366   0.71218255 
 1168000      1168000    1554.9517    1216.3639    338.58777    173.57077    356.22089    22713.105   0.71388393 
 1170000      1170000    1535.4638    1221.3551    314.10878    174.28299   -291.30238    22688.388   0.71466165 
 1172000      1172000    1575.4814    1205.4133    370.06815    172.00816   -5.4549316    22873.167   0.70888831 
 1174000      1174000    1606.5423    1268.4931    338.04917    181.00942   -1917.9876    22642.975   0.71609499 
 1176000      1176000    1591.5405    1271.7182    319.82226    181.46963    491.95629    22631.218   0.71646702 
 1178000      1178000    1502.6563    1206.2745    296.38184    172.13105   -210.64838    22509.468   0.72034225 
 1180000      1180000    1559.4339    1193.8452    365.58868    170.35744    -93.27842    22728.275   0.71340747 
 1182000      1182000    1514.7294      1207.96    306.76938    172.37157    374.29281    22544.854    0.7192116 
 1184000      1184000    1522.6623     1200.188    322.47428    171.26253   -180.36035    22828.403   0.71027839 
 1186000      1186000    1544.6267    1208.2793    336.34746    172.41712    141.00557    22461.617   0.72187683 
 1188000      1188000    1511.5938    1220.3935    291.20029    174.14578   -30.673621    22481.777   0.72122952 
 1190000      1190000    1558.8268    1216.8087    342.01817    173.63424    1181.6848    22510.089   0.72032238 
 1192000      1192000    1526.2498    1229.8872    296.36258     175.5005    402.08943    22523.139   0.71990504 
 1194000      1194000    1501.2552    1186.5128    314.74235    169.31113    1016.1878    22368.424   0.72488436 
 1196000      1196000    1547.7595    1211.7504    336.00907    172.91244   -422.89752     22717.09   0.71375872 
 1198000      1198000    1540.6689    1242.3003    298.36861    177.27181   -850.73607    22558.695   0.71877034 
 1200000      1200000    1520.6045    1239.1443    281.46026    176.82145    432.52799    22488.695   0.72100764 
 1202000      1202000     1573.565    1236.3638    337.20119    176.42468    116.64652    22519.418   0.72002397 
 1204000      1204000    1510.1398    1196.4513     313.6885    170.72931     1125.589    22557.154   0.71881944 
 1206000      1206000    1481.6519    1198.6694    282.98256    171.04583    1051.2824      22142.6   0.73227718 
 1208000      1208000    1504.0413    1199.8435    304.19774    171.21337   -208.06453    22256.055   0.72854426 
 1210000      1210000    1506.2692    1204.7323    301.53688    171.91098     -254.013    22460.366   0.72191703 
 1212000      1212000    1525.3113    1189.6324    335.67897    169.75628    68.745005     22619.07   0.71685178 
 1214000      1214000    1550.3638    1235.4044    314.95939    176.28778   -1004.8878    22667.159   0.71533099 
 1216000      1216000    1569.7258    1192.3668    377.35904    170.14647   -1667.6227     22750.17   0.71272086 
 1218000      1218000    1582.7045    1223.5267    359.17773    174.59288   -1223.6475    22882.352   0.70860378 
 1220000      1220000    1572.6299    1232.8945    339.73543    175.92962   -1555.0336     22801.55   0.71111486 
 1222000      1222000    1476.2253    1200.6836    275.54174    171.33325    1202.5837    22240.717   0.72904668 
 1224000      1224000     1521.889    1234.6747    287.21421    176.18366   -306.58182    22441.185   0.72253408 
 1226000      1226000    1493.8992    1212.2058    281.69335    172.97743   -195.96811    22484.541   0.72114084 
 1228000      1228000    1526.4009    1234.9855    291.41545    176.22801    1428.1174    22371.302   0.72479111 
 1230000      1230000    1521.3971    1243.1047    278.29248    177.38658    649.46917    22359.613   0.72517003 
 1232000      1232000    1538.8623    1229.6929    309.16938    175.47277    649.35415    22543.391    0.7192583 
 1234000      1234000     1518.379    1197.6416    320.73738    170.89917   -896.50247    22820.958   0.71051009 
 1236000      1236000    1561.9088    1224.9898      336.919    174.80166   -571.90355    22627.307   0.71659083 
 1238000      1238000    1520.7027     1225.279    295.42375    174.84292    -1312.522    22605.094   0.71729499 
 1240000      1240000     1516.572    1204.3258     312.2462    171.85297    86.191396    22463.333    0.7218217 
 1242000      1242000    1605.3711    1253.3831    351.98802    178.85327   -135.49686    22277.909   0.72782957 
 1244000      1244000    1528.8141    1226.4129    302.40116    175.00473   -399.96623    22512.415   0.72024797 
 1246000      1246000    1520.1502    1209.6741    310.47608    172.61616    195.19522    22690.277   0.71460216 
 1248000      1248000    1572.3243    1272.8114    299.51291    181.62562    1622.8446    22440.509   0.72255586 
 1250000      1250000    1514.7683    1191.7485    323.01976    170.05824   -169.66497    22382.784   0.72441931 
 1252000      1252000     1541.952    1228.4044    313.54755    175.28891    329.97339     22452.17   0.72218058 
 1254000      1254000    1564.4379    1231.3775    333.06032    175.71316    -1666.087     22589.06   0.71780415 
 1256000      1256000    1596.2321    1263.1179    333.11421     180.2424   -1684.8736    22626.383    0.7166201 
 1258000      1258000    1593.9056    1236.5494    357.35621    176.45117    49.322456    22607.435   0.71722073 
 1260000      1260000    1505.7329    1188.7326    317.00029    169.62788    568.74619    22411.851   0.72347977 
 1262000      1262000    1575.5538    1238.9475    336.60634    176.79337   -914.13685    22839.495   0.70993343 
 1264000      1264000    1460.1247    1172.1178    288.00683    167.25701   -186.96738    22469.733    0.7216161 
 1266000      1266000     1531.239    1205.7699    325.46905    172.05905    234.70711    22704.479   0.71415515 
 1268000      1268000    1564.4902     1233.692    330.79826    176.04342    1361.1954     22474.96   0.72144827 
 1270000      1270000    1505.3301    1200.7596    304.57047    171.34409   -707.15508     22459.29   0.72195162 
 1272000      1272000    1560.4583     1221.226    339.23234    174.26457     287.5357    22262.604   0.72832992 
 1274000      1274000    1534.4355     1260.829    273.60651    179.91578   -29.711358    22135.471   0.73251304 
 1276000      1276000    1583.2653    1250.9538    332.31153    178.50662   -1003.7708    22428.045   0.72295738 
 1278000      1278000    1555.7713    1230.3148    325.45644    175.56152    107.12491    22658.335   0.71560955 
 1280000      1280000    1556.6959    1225.2082    331.48776    174.83281    494.90148    22364.337   0.72501682 
 1282000      1282000    1567.9876     1251.799    316.18858    178.62723   -1223.0401    22168.066   0.73143598 
 1284000      1284000    1539.4224    1236.7194    302.70298    176.47543   -1836.1475    22427.216   0.72298412 
 1286000      1286000    1539.8185    1234.1177     305.7008    176.10418    1452.8198    22288.225    0.7274927 
 1288000      1288000    1587.3778     1210.139    377.23884     172.6825    296.04525    22838.642   0.70995995 
 1290000      1290000    1560.1442    1211.7431    348.40107     172.9114    667.32416    22631.227   0.71646671 
 1292000      1292000    1521.7492    1199.5989    322.15028    171.17846   -847.25493    22265.186   0.72824547 
 1294000      1294000    1571.7686     1238.281    333.48751    176.69827   -262.74761    22691.719   0.71455675 
 1296000      1296000    1547.2167    1237.4891    309.72768    176.58526    23.552622    22562.557   0.71864733 
 1298000      1298000    1564.3221    1241.8102    322.51185    177.20187    385.67557    22670.776   0.71521686 
 1300000      1300000    1558.4883    1231.3841     327.1042     175.7141   -246.76433    22395.789   0.72399865 
 1302000      1302000    1555.6968    1229.0987    326.59818    175.38797    219.52167    22353.541     0.725367 
 1304000      1304000    1564.6048    1216.1503     348.4545     173.5403   -1102.7008    22893.745   0.70825115 
 1306000      1306000    1544.6629    1211.9319    332.73099    172.93833   -380.61043    22546.975   0.71914396 
 1308000      1308000    1558.9013    1229.7076    329.19367    175.47487    606.38121    22777.953   0.71185154 
 1310000      1310000    1550.2157     1271.777    278.43866    181.47802    153.36675    22331.885    0.7260704 
 1312000      1312000    1526.1651    1233.5342    292.63098     176.0209    809.76589    22438.847   0.72260935 
 1314000      1314000    1599.9376    1237.0621    362.87543    176.52433   -1368.1094    22798.897    0.7111976 
 1316000      1316000    1584.7421    1245.1125    339.62962    177.67309    53.407343     22873.37   0.70888202 
 1318000      1318000    1572.3956    1248.5663    323.82927    178.16594    -629.9708    22934.722   0.70698573 
 1320000      1320000    1502.0215    1229.8236    272.19796    175.49142   -672.05645    22781.334    0.7117459 
 1322000      1322000    1577.1408    1234.8941    342.24669    176.21496    657.15737    22434.556   0.72274756 
 1324000      1324000    1587.8683     1252.205    335.66326    178.68517   -518.04617    22549.247   0.71907151 
 1326000      1326000    1515.8843    1204.5493    311.33505    171.88486    346.61139    22446.523   0.72236226 
 1328000      1328000    1546.7966    1204.4186    342.37801    171.86622   -825.74501    22537.508   0.71944604 
 1330000      1330000    1549.4301    1229.5122    319.91795    175.44698   -54.406836    22808.442   0.71089998 
 1332000      1332000    1588.0105    1229.4064    358.60407    175.43189   -967.49266    22810.492    0.7108361 
 1334000      1334000    1512.7961    1236.2388    276.55731    176.40685    559.32473    22437.502   0.72265267 
 1336000      1336000    1514.5722    1232.0167    282.55552    175.80436    688.71907    22626.428   0.71661868 
 1338000      1338000    1622.6857    1239.2398    383.44589    176.83508    -443.9261    22965.863   0.70602706 
 1340000      1340000    1631.6512    1269.1972    362.45396     181.1099   -1553.0294    22822.436   0.71046408 
 1342000      1342000    1566.2015    1223.2807    342.92079    174.55777    1184.4386    22738.349   0.71309138 
 1344000      1344000      1627.17    1265.3463    361.82366    180.56039   -718.33405    22923.449   0.70733338 
 1346000      1346000    1569.4437    1229.7745    339.66921    175.48441   -1737.3833    22489.202   0.72099138 
 1348000      1348000    1522.1768    1217.5566    304.62024    173.74097    1932.6359    22722.659   0.71358379 
 1350000      1350000    1576.2601    1233.4049    342.85519    176.00246   -1411.1156    22844.264   0.70978522 
 1352000      1352000    1593.9684    1222.8326    371.13588    174.49383     -1210.98    22575.548   0.71823378 
 1354000      1354000    1578.8839    1250.3582    328.52572    178.42163    747.36916    22850.771   0.70958309 
 1356000      1356000    1555.6501    1247.1318    308.51832    177.96123    912.19963    22695.486   0.71443814 
 1358000      1358000    1488.1659    1210.4301    277.73579    172.72404    918.68976    22291.637   0.72738135 
[...]
 4682000      4682000    1568.6067    1236.1775    332.42914    176.39811    708.07596    22458.349   0.72198188 
 4684000      4684000    1620.9496    1252.8251    368.12446    178.77365   -210.72576    22680.743   0.71490253 
 4686000      4686000    1541.4708    1208.1884    333.28241    172.40416    377.27857    22689.095   0.71463939 
 4688000      4688000       1523.3    1212.4387    310.86131    173.01066    51.293904    22607.529   0.71721774 
 4690000      4690000    1565.7936    1221.0814    344.71217    174.24395   -288.15162    22471.829   0.72154878 
 4692000      4692000     1507.231    1222.5163     284.7147    174.44869   -989.04588    22573.474   0.71829977 
 4694000      4694000    1573.7896    1224.9544    348.83517    174.79661    204.75544    22538.298   0.71942082 
 4696000      4696000    1576.9888    1245.7578      331.231    177.76518   -31.270428    22519.175   0.72003176 
 4698000      4698000    1538.7526    1206.1837     332.5689    172.11809    1256.8368    22519.368   0.72002559 
 4700000      4700000    1544.2041    1239.2981    304.90601    176.84339    213.94758    22620.466   0.71680756 
 4702000      4702000    1535.1058      1207.45     327.6558    172.29879    137.82752    22926.964   0.70722494 
 4704000      4704000    1517.9724    1198.6701    319.30234    171.04593   -875.54563     22644.46   0.71604803 
 4706000      4706000    1559.9125    1242.7179    317.19457     177.3314   -204.24127    22480.317   0.72127634 
 4708000      4708000    1534.6207    1245.8642    288.75656    177.78035   -336.94839    22278.896   0.72779734 
 4710000      4710000    1522.0281    1235.1214    286.90668     176.2474    652.31929    22316.023    0.7265865 
 4712000      4712000     1549.291    1236.5125    312.77848    176.44591    504.62589    22643.166   0.71608896 
 4714000      4714000    1562.4328    1220.4762    341.95659    174.15759    854.58608     22317.56   0.72653647 
 4716000      4716000    1516.3233    1208.4779    307.84542    172.44547   -1244.8473    22326.418   0.72624821 
 4718000      4718000    1553.0253    1213.1557    339.86959    173.11297    534.62384    22493.024   0.72086887 
 4720000      4720000    1572.6552    1235.1297     337.5255    176.24859    -1776.351     22842.68   0.70983445 
 4722000      4722000    1592.6281    1243.8956    348.73252    177.49945    195.51163    22751.362   0.71268351 
 4724000      4724000    1518.8815    1219.3437    299.53783    173.99597     225.3162    22870.544   0.70896961 
 4726000      4726000    1589.9569    1231.3331    358.62377    175.70683    1349.3581    22751.053   0.71269322 
 4728000      4728000    1547.3589    1209.8482    337.51068    172.64101   -1192.6694    22806.653   0.71095575 
 4730000      4730000    1499.3363    1190.1752    309.16118    169.83373   -300.03852    22733.979   0.71322846 
 4732000      4732000    1572.5819    1220.1851    352.39678    174.11604   -998.64717    23077.636   0.70260752 
 4734000      4734000    1513.9301    1212.3482     301.5819    172.99775    727.15113    22637.162   0.71627888 
 4736000      4736000    1537.0465    1228.0859    308.96064    175.24346    960.05058    22402.385   0.72378547 
 4738000      4738000    1583.6858    1224.5562    359.12961    174.73978    236.86299     22443.22   0.72246855 
 4740000      4740000    1571.9934    1236.7345     335.2589    176.47758   -972.02364    22596.481    0.7175684 
 4742000      4742000    1529.7974    1227.4632    302.33419     175.1546   -232.50148    22674.502   0.71509932 
 4744000      4744000     1519.123    1238.3044    280.81855    176.70161    -2255.165    22515.781   0.72014028 
 4746000      4746000    1564.3196    1223.6739    340.64573    174.61388    1996.8996    22691.457   0.71456499 
 4748000      4748000    1472.1079    1184.6619    287.44601    169.04701    301.16215    22357.027   0.72525389 
 4750000      4750000     1526.228    1208.3991    317.82889    172.43423   -1118.0981    22767.909   0.71216558 
 4752000      4752000    1562.9576    1231.4525    331.50507    175.72386    799.12576    22686.068   0.71473475 
 4754000      4754000    1555.6924    1245.6231    310.06934    177.74595     93.80661    22683.186   0.71482554 
 4756000      4756000    1527.0563    1217.8718     309.1845    173.78594   -575.08941    22313.572   0.72666631 
 4758000      4758000    1512.3305    1237.9461    274.38449    176.65047    115.77905    22419.971   0.72321773 
 4760000      4760000    1581.7291    1252.7431    328.98593    178.76195    104.92575    22340.364   0.72579483 
 4762000      4762000    1574.7841     1224.609    350.17512    174.74732    432.43124    22855.014   0.70945138 
 4764000      4764000    1540.6354    1235.3823    305.25312    176.28463   -490.46591    22996.844   0.70507592 
 4766000      4766000    1569.6538    1244.4398    325.21405     177.5771   -75.786921    22669.739   0.71524957 
 4768000      4768000    1582.3623    1231.4754    350.88696    175.72712   -101.75228    22707.433   0.71406226 
 4770000      4770000    1513.6252    1191.2389     322.3863    169.98552    600.66055    22901.219   0.70801999 
 4772000      4772000    1561.7366    1235.2876    326.44903    176.27112   -793.17046    22782.629   0.71170545 
 4774000      4774000     1573.793    1228.8939    344.89909    175.35875    400.28435    22764.563   0.71227024 
 4776000      4776000    1526.0854    1240.7376    285.34781    177.04881   -596.85449    22569.478   0.71842694 
 4778000      4778000    1558.9468    1198.4806    360.46626    171.01888   -684.75238    22892.666   0.70828452 
 4780000      4780000    1522.1269    1221.3937    300.73321     174.2885    835.57468    22434.402   0.72275254 
 4782000      4782000    1584.1946    1298.3106      285.884    185.26427    208.47295    22559.678   0.71873902 
 4784000      4784000      1551.56    1223.2796    328.28039    174.55761    162.24855    22630.356   0.71649429 
 4786000      4786000    1526.7804    1196.7161    330.06431    170.76709   -1485.0079    22591.428   0.71772891 
 4788000      4788000    1591.4067    1257.9793     333.4274    179.50913    279.25915    22600.853   0.71742959 
 4790000      4790000    1509.1509    1200.2735    308.87741    171.27473    912.00251    22309.307   0.72680523 
 4792000      4792000    1541.3188    1239.1529    302.16583    176.82268   -302.72744    22394.776   0.72403141 
 4794000      4794000    1572.0282    1251.3017    320.72652    178.55627   -958.56712    22661.808   0.71549988 
 4796000      4796000     1557.925    1215.8069    342.11808    173.49129     -289.877    22757.345   0.71249616 
 4798000      4798000    1558.2287    1243.5589    314.66986     177.4514   -113.08509    22540.005   0.71936633 
 4800000      4800000     1584.787    1258.8942    325.89276     179.6397   -1476.0608    22619.584   0.71683552 
 4802000      4802000    1491.3396    1212.1254    279.21422    172.96595    1098.8063    22587.563   0.71785171 
 4804000      4804000    1559.7071     1239.342    320.36505    176.84967    175.54345    22411.665   0.72348578 
 4806000      4806000    1561.7841    1244.3623    317.42175    177.56604    1023.3521    22647.125   0.71596376 
 4808000      4808000    1551.1168    1236.8796    314.23724    176.49828    864.46942    22467.027     0.721703 
 4810000      4810000    1576.4051    1259.0396    317.36549    179.66045    251.15076    22661.992   0.71549407 
 4812000      4812000    1495.1278    1195.2704    299.85748     170.5608     70.37012     22535.35   0.71951495 
 4814000      4814000    1540.9531    1208.8453     332.1078    172.49789    79.245141    22623.504   0.71671131 
 4816000      4816000    1603.8718    1264.6128    339.25903    180.45572   -101.51983    22619.379     0.716842 
 4818000      4818000    1527.0832    1218.7351    308.34817    173.90913    1482.1485    22733.458   0.71324482 
 4820000      4820000    1589.2915     1222.529    366.76257     174.4505   -1318.0979    22633.342   0.71639976 
 4822000      4822000    1575.9108    1220.5203    355.39057    174.16387    845.88942    22971.297   0.70586005 
 4824000      4824000    1506.4045    1194.6139    311.79063    170.46712    840.23913    22495.299   0.72079596 
 4826000      4826000    1577.7923    1237.9583      339.834    176.65222   -508.47538    22789.247   0.71149875 
 4828000      4828000    1603.0287    1224.4166    378.61208    174.71986    634.16525    22581.279   0.71805148 
 4830000      4830000    1520.5435    1215.4179    305.12554    173.43579    581.82528    22682.704   0.71484073 
 4832000      4832000    1521.0475    1211.7735      309.274    172.91574   -732.44464    22667.097   0.71533293 
 4834000      4834000    1549.7444    1194.3819     355.3625    170.43401   -57.585624    22674.817   0.71508938 
 4836000      4836000    1566.4795    1231.1871    335.29235    175.68599   -331.22502    22663.513   0.71544605 
 4838000      4838000    1548.6463      1233.76     314.8863    176.05313   -410.01243    22664.606   0.71541154 
 4840000      4840000    1553.4108    1227.1736    326.23718    175.11328   -36.318725    22723.981   0.71354226 
 4842000      4842000    1551.7729     1209.392     342.3809    172.57591   -936.14317     22755.64   0.71254953 
 4844000      4844000    1531.6804    1237.4312    294.24913      176.577   -1041.9656    22935.118   0.70697352 
 4846000      4846000    1580.6207    1243.9458    336.67492    177.50661   -359.67321     22557.02   0.71882371 
 4848000      4848000    1535.1294    1233.9488    301.18059    176.08007   -650.77021    22615.549   0.71696339 
 4850000      4850000    1643.5965    1270.8692    372.72736    181.34848   -110.99664    22989.993   0.70528604 
 4852000      4852000    1528.6858    1201.1607    327.52511    171.40133    1604.2967    22488.192   0.72102377 
 4854000      4854000    1555.3428    1224.1137    331.22907    174.67664   -2016.0307    22718.646   0.71370982 
 4856000      4856000    1551.3296    1239.2658    312.06378    176.83879   -281.09847    22669.275   0.71526419 
 4858000      4858000    1610.3975    1240.7123    369.68523     177.0452    744.61802    22721.641   0.71361575 
 4860000      4860000    1589.3508     1241.551    347.79979    177.16488   -835.91625    22619.534    0.7168371 
 4862000      4862000    1548.3166    1223.4174     324.8992    174.57728   -499.54982    22671.961   0.71517948 
 4864000      4864000     1493.047    1242.9791    250.06791    177.36866    732.30589     22202.89   0.73028875 
 4866000      4866000     1569.566    1253.7058    315.86025    178.89932    -334.2906    22481.213    0.7212476 
 4868000      4868000    1536.7105     1224.274    312.43644    174.69952   -567.30274    22761.326   0.71237154 
 4870000      4870000    1536.4685    1230.4083    306.06018    175.57486    748.64405    22612.401   0.71706322 
 4872000      4872000    1616.7371    1247.8081    368.92893    178.05775    137.49484    22632.544   0.71642503 
 4874000      4874000    1584.3388    1238.7291    345.60969    176.76221    409.51318    22729.332   0.71337429 
 4876000      4876000    1537.3971    1219.3736    318.02359    174.00024   -488.95602    22734.214   0.71322111 
 4878000      4878000    1565.5209    1258.5129    307.00795    179.58529    1178.5888      22549.4   0.71906662 
 4880000      4880000    1550.8191    1240.7152    310.10397    177.04561    1169.6463    22089.549   0.73403587 
 4882000      4882000    1546.3187    1224.2228    322.09585    174.69221    244.75265     22441.45   0.72252556 
 4884000      4884000     1515.917    1222.7565    293.16042    174.48298    300.17109    22697.445   0.71437649 
 4886000      4886000     1526.577    1214.6013    311.97565    173.31926   -657.39314    22747.892   0.71279224 
 4888000      4888000    1557.9612    1225.7512    332.20998    174.91031   -545.99079    22555.004   0.71888795 
 4890000      4890000    1472.6358    1183.4406    289.19518    168.87274     96.82988      22676.7   0.71503001 
 4892000      4892000    1518.0556    1222.6837    295.37197    174.47258    976.49143    22669.034   0.71527179 
 4894000      4894000    1545.6621    1230.6473    315.01476    175.60896    1346.4094    22302.844   0.72701585 
 4896000      4896000    1524.0578    1229.0064    295.05146     175.3748    633.81795    22607.978   0.71720351 
 4898000      4898000    1593.7111    1270.1932    323.51788    181.25202    404.83932    22768.992   0.71213171 
 4900000      4900000    1542.6439    1200.8296    341.81435    171.35408    630.64096     22611.66   0.71708672 
 4902000      4902000    1515.6231    1232.3539    283.26925    175.85248   -341.25481    22517.407   0.72008829 
 4904000      4904000    1542.3634    1215.7836    326.57988    173.48796   -587.94433    22647.312   0.71595785 
 4906000      4906000    1558.3269    1225.7649    332.56207    174.91226    1592.2254    22648.652    0.7159155 
 4908000      4908000    1515.6755    1214.0735    301.60208    173.24393    256.88728    22492.017   0.72090114 
 4910000      4910000    1582.5385    1233.9339    348.60455    176.07795    -401.3182     22769.29   0.71212237 
 4912000      4912000    1531.7602    1223.7706    307.98964    174.62768    17.379535    22553.202    0.7189454 
 4914000      4914000    1591.5259    1248.5063    343.01964    178.15738   -768.35869    22747.866   0.71279305 
 4916000      4916000    1508.6845    1215.1271    293.55742    173.39428    441.02724    22823.679   0.71042539 
 4918000      4918000    1555.1012    1226.1764    328.92477    174.97098   -24.442538    22647.461   0.71595315 
 4920000      4920000    1506.4449    1204.2403    302.20462    171.84078    451.02439    22729.793   0.71335982 
 4922000      4922000     1520.303    1218.8987    301.40429    173.93248    330.48429    22849.921   0.70960949 
 4924000      4924000    1495.5903      1207.16    288.43034     172.2574   -1873.2049    22318.453   0.72650739 
 4926000      4926000    1481.8762    1193.2917    288.58446    170.27846    419.98503     22553.41   0.71893876 
 4928000      4928000    1588.5105    1278.7552     309.7553    182.47378   -327.14461    22462.485   0.72184893 
 4930000      4930000    1545.1069    1238.5277    306.57919    176.73346    310.83428    22606.594   0.71724741 
 4932000      4932000    1550.9349    1239.6048    311.33011    176.88717    1008.9864    22647.013    0.7159673 
 4934000      4934000    1569.0981    1236.8102    332.28789    176.48838    404.82671    23012.706   0.70458993 
 4936000      4936000    1542.9052    1216.9751    325.93015    173.65798   -434.61749    22691.764   0.71455534 
 4938000      4938000    1544.5975    1251.6474    292.95016     178.6056    986.39943     22705.83   0.71411267 
 4940000      4940000     1575.418    1229.8446    345.57345    175.49441   -866.87886     23014.34   0.70453992 
 4942000      4942000    1525.3356    1217.9803    307.35535    173.80142    179.91112    22565.205   0.71856298 
 4944000      4944000    1624.4105    1244.4231    379.98735    177.57472    -1068.773    22814.305   0.71071729 
 4946000      4946000    1555.1509     1190.931    364.21989    169.94158    -472.7365    22677.571   0.71500253 
 4948000      4948000    1537.0894     1210.243    326.84638    172.69735    610.75787    22854.442   0.70946913 
 4950000      4950000    1526.7507    1247.9372    278.81352    178.07616   -816.11209    22558.216   0.71878562 
 4952000      4952000    1491.9836    1172.5272    319.45644    167.31543    -420.1796     22470.03   0.72160654 
 4954000      4954000    1522.9283    1222.1509     300.7774    174.39656    138.15917    22644.236   0.71605511 
 4956000      4956000    1561.8563    1252.7492    309.10711    178.76282   -479.63904    22663.882   0.71543442 
 4958000      4958000    1540.9759    1247.7952    293.18072    178.05591    1380.7734    22250.094   0.72873945 
 4960000      4960000    1545.4765    1224.7591    320.71741    174.76873   -268.85991    22573.758   0.71829072 
 4962000      4962000    1575.3286    1237.5959    337.73277     176.6005   -29.426842    22627.351   0.71658945 
 4964000      4964000    1550.5347     1227.624    322.91064    175.17755    360.83889    22774.621   0.71195569 
 4966000      4966000    1552.5489    1236.5079    316.04102    176.44524    197.19133    22214.227   0.72991607 
 4968000      4968000    1553.5594    1220.6985    332.86085    174.18931   -578.71769    22826.491   0.71033788 
 4970000      4970000    1580.0607    1247.5662    332.49453    178.02323   -1031.2881     22653.87   0.71575059 
 4972000      4972000    1523.6729    1222.9019    300.77099    174.50372   -293.61065    22467.218   0.72169686 
 4974000      4974000     1550.138    1215.2332     334.9048    173.40942    171.41743    22515.176   0.72015965 
 4976000      4976000    1578.1065    1235.8137    342.29281    176.34619    1671.9569    22477.219   0.72137577 
 4978000      4978000    1567.6771    1232.5469    335.13015    175.88003   -578.40698    22233.613   0.72927964 
 4980000      4980000    1571.6633    1238.7373    332.92602    176.76338   -1170.2568    22514.638   0.72017685 
 4982000      4982000    1562.6566    1232.2474     330.4092    175.83728   -1007.4184    22601.118   0.71742119 
 4984000      4984000    1495.7056    1199.2716    296.43398    171.13176   -568.96561    22441.377   0.72252789 
 4986000      4986000    1589.0864      1239.82    349.26634    176.91788    971.65819    22607.926   0.71720515 
 4988000      4988000    1553.8012    1219.4219    334.37926    174.00714   -1801.7572    22824.784   0.71039099 
 4990000      4990000    1574.5714    1247.5387    327.03263    178.01931   -377.30896    22604.428   0.71731615 
 4992000      4992000    1519.1714    1174.6716    344.49972    167.62143    350.67676    22664.079    0.7154282 
 4994000      4994000     1534.603    1220.4279    314.17508    174.15068    1263.5381    22388.075   0.72424812 
 4996000      4996000    1520.1753    1211.0757    309.09966    172.81616    585.29767    22257.545   0.72849548 
 4998000      4998000     1549.429    1277.6771    271.75191    182.31994   -533.96852     22634.11   0.71637546 
 5000000      5000000    1521.4117    1218.0085     303.4032    173.80545    493.23195    22580.381   0.71808004 
Loop time of 10476.1 on 24 procs for 5000000 steps with 2352 atoms

Performance: 41.237 ns/day, 0.582 hours/ns, 477.278 timesteps/s
93.9% CPU use with 24 MPI tasks x 1 OpenMP threads

MPI task timing breakdown:
Section |  min time  |  avg time  |  max time  |%varavg| %total
---------------------------------------------------------------
Pair    | 5923.5     | 6157.7     | 6347.9     | 163.1 | 58.78
Bond    | 329.26     | 333.07     | 338.34     |  11.5 |  3.18
Kspace  | 1474.5     | 1674.7     | 1896.6     | 315.9 | 15.99
Neigh   | 260.33     | 262.17     | 264.18     |   6.4 |  2.50
Comm    | 1372.9     | 1398.7     | 1422.7     |  32.8 | 13.35
Output  | 214.61     | 214.67     | 215.88     |   1.7 |  2.05
Modify  | 206.25     | 215.98     | 227.6      |  45.0 |  2.06
Other   |            | 219.1      |            |       |  2.09

Nlocal:    98 ave 107 max 88 min
Histogram: 3 0 1 4 2 4 4 2 2 2
Nghost:    5668.79 ave 5742 max 5575 min
Histogram: 2 2 1 0 3 3 6 1 4 2
Neighs:    58610.3 ave 62538 max 52378 min
Histogram: 2 0 1 3 2 2 2 5 4 3

Total # of neighbors = 1406648
Ave neighs/atom = 598.065
Ave special neighs/atom = 9.14286
Neighbor list builds = 120957
Dangerous builds = 0
write_data ethanol_after_npt.data
Ewald initialization ...
  using 12-bit tables for long-range coulomb (src/kspace.cpp:332)
  G vector (1/distance) = 0.18912
  estimated absolute RMS force accuracy = 0.00400529
  estimated relative force accuracy = 1.20618e-05
  KSpace vectors: actual max1d max3d = 128 4 364
                  kxmax kymax kzmax  = 4 4 4



#fix 1 all nvt temp 300 300 100# iso 1.0 1.0 1000.0
#dump            DUMPxyz all xyz 1 but1_clms_20ps.xyz

#run 500000
Total wall time: 2:54:36
