LAMMPS (3 Mar 2020)
  using 1 OpenMP thread(s) per MPI task
units           real
atom_style      full
boundary        p p p


pair_style      lj/cut/coul/long 12.0
pair_modify     tail yes mix geometric
bond_style      harmonic
angle_style     harmonic
dihedral_style  opls

kspace_style    ewald 1.0e-5
#special_bonds   lj/coul 0.0 0.0 0.5

neighbor        2.0 bin
neigh_modify    every 1 delay 0 check yes

read_data       butane_after_npt.data
  orthogonal box = (2.40481 2.40481 2.40481) to (32.5952 32.5952 32.5952)
  2 by 3 by 4 MPI processor grid
  reading atoms ...
  2352 atoms
  reading velocities ...
  2352 velocities
  scanning bonds ...
  1 = max bonds/atom
  scanning angles ...
  6 = max angles/atom
  scanning dihedrals ...
  11 = max dihedrals/atom
  reading bonds ...
  2184 bonds
  reading angles ...
  4032 angles
  reading dihedrals ...
  4536 dihedrals
  4 = max # of 1-2 neighbors
  6 = max # of 1-3 neighbors
  9 = max # of 1-4 neighbors
  13 = max # of special neighbors
  special bonds CPU = 0.000948727 secs
  read_data CPU = 0.0454401 secs

group           mobile union all
2352 atoms in group mobile

#minimize 1.0e-8 1.0e-10 400000 400000
#write_data buate_after_min.data

fix DEF all deform 1 x final 0.0 29.9269 y final 0.0 29.9269 z final 0.0 29.9269 units box
run 1
Ewald initialization ...
  using 12-bit tables for long-range coulomb (src/kspace.cpp:332)
  G vector (1/distance) = 0.187296
  estimated absolute RMS force accuracy = 0.00332713
  estimated relative force accuracy = 1.00196e-05
  KSpace vectors: actual max1d max3d = 257 5 665
                  kxmax kymax kzmax  = 5 5 5
Neighbor list info ...
  update every 1 steps, delay 0 steps, check yes
  max neighbors/atom: 2000, page size: 100000
  master list distance cutoff = 14
  ghost atom cutoff = 14
  binsize = 7, bins = 5 5 5
  1 neighbor lists, perpetual/occasional/extra = 1 0 0
  (1) pair lj/cut/coul/long, perpetual
      attributes: half, newton on
      pair build: half/bin/newton
      stencil: half/bin/3d/newton
      bin: standard
Per MPI rank memory allocation (min/avg/max) = 20.77 | 20.79 | 20.8 Mbytes
Step Temp E_pair E_mol TotEng Press Volume 
       0     276.5994   -612.84208    1824.4851    3150.0197    157.01215    27517.287 
       1     276.5994   -613.51222    1824.4851    3149.3495    157.76741    26803.111 
WARNING: Bond/angle/dihedral extent > half of periodic box length (src/domain.cpp:906)
Loop time of 0.00194706 on 24 procs for 1 steps with 2352 atoms

Performance: 44.375 ns/day, 0.541 hours/ns, 513.595 timesteps/s
97.4% CPU use with 24 MPI tasks x 1 OpenMP threads

MPI task timing breakdown:
Section |  min time  |  avg time  |  max time  |%varavg| %total
---------------------------------------------------------------
Pair    | 0.00064949 | 0.00093468 | 0.0011233  |   0.0 | 48.00
Bond    | 2.7351e-05 | 4.229e-05  | 5.2498e-05 |   0.0 |  2.17
Kspace  | 0.00020679 | 0.00038485 | 0.00064948 |   0.0 | 19.77
Neigh   | 0          | 0          | 0          |   0.0 |  0.00
Comm    | 0.00042474 | 0.00044903 | 0.00047368 |   0.0 | 23.06
Output  | 4.3451e-05 | 5.9811e-05 | 9.636e-05  |   0.0 |  3.07
Modify  | 5.622e-06  | 6.6848e-06 | 7.904e-06  |   0.0 |  0.34
Other   |            | 6.97e-05   |            |       |  3.58

Nlocal:    98 ave 114 max 71 min
Histogram: 1 0 1 2 2 5 4 2 3 4
Nghost:    4892.92 ave 4972 max 4775 min
Histogram: 1 1 1 2 3 5 2 1 4 4
Neighs:    48055.5 ave 58393 max 33928 min
Histogram: 1 0 2 2 1 7 5 2 2 2

Total # of neighbors = 1153332
Ave neighs/atom = 490.362
Ave special neighs/atom = 9.14286
Neighbor list builds = 0
Dangerous builds = 0
unfix DEF

thermo_style    custom step time enthalpy etotal ke pe temp press vol density
#thermo_modify   line multi
thermo          1000
thermo_modify   flush yes
timestep 1.0


## Equil NPT ##
#fix      NPT  all nvt temp 272 272 100 iso 1 1 1000
#restart 1000000 liqbut1.restart

#fix      NPT  all npt temp 160 160 50 iso 1 1 500
#dump myDump all atom 2000 butane_npt.lammpstrj

#run 5000000
#write_data ethanol_after_npt.data



fix 1 all nvt temp 272 272 100 # iso 1.0 1.0 1000.0
#dump            DUMPxyz all xyz 1 but1_clms_20ps.xyz
#dump            DUMP all custom 1000 mol.lammpstrj id type x y z fx fy fz mol

run 1000000
Ewald initialization ...
  using 12-bit tables for long-range coulomb (src/kspace.cpp:332)
  G vector (1/distance) = 0.18754
  estimated absolute RMS force accuracy = 0.00332589
  estimated relative force accuracy = 1.00158e-05
  KSpace vectors: actual max1d max3d = 257 5 665
                  kxmax kymax kzmax  = 5 5 5
Per MPI rank memory allocation (min/avg/max) = 20.77 | 20.79 | 20.8 Mbytes
Step Time Enthalpy TotEng KinEng PotEng Temp Press Volume Density 
       1            1    9139.1558    3195.2677    1938.3766    1256.8911     276.5994    15205.809    26803.111   0.60494922 
    1000         1000    3247.2103    3075.8361    1907.9678    1167.8682    272.26017    438.41411    26803.111   0.60494922 
    2000         2000    3099.1018    3013.7538    1846.2832    1167.4706      263.458    218.33929    26803.111   0.60494922 
    3000         3000    3061.8114    3159.4657    1929.7053    1229.7604    275.36203   -249.82173    26803.111   0.60494922 
    4000         4000    3877.8392    3097.4166    1919.9073    1177.5093    273.96389    1996.4974    26803.111   0.60494922 
    5000         5000    3244.5613    3011.0408    1831.6944    1179.3464    261.37623    597.39838    26803.111   0.60494922 
    6000         6000    3051.1188    3102.1494    1958.3152    1143.8341    279.44457   -130.54782    26803.111   0.60494922 
    7000         7000    2636.7013     3157.083     1938.945     1218.138    276.68051    -1331.254    26803.111   0.60494922 
    8000         8000    3276.9362    3051.9483    1889.4298    1162.5185    269.61486    575.56992    26803.111   0.60494922 
    9000         9000    3254.4673    3082.0138    1859.9599    1222.0539    265.40962    441.17492    26803.111   0.60494922 
   10000        10000    3127.1885     3133.864    1933.7376    1200.1264    275.93742    -17.07739    26803.111   0.60494922 
   11000        11000    3405.8247    3043.7814    1900.0126    1143.7687    271.12499    926.18859    26803.111   0.60494922 
   12000        12000    3315.4498    3130.5205    1907.2462    1223.2743     272.1572    473.09094    26803.111   0.60494922 
   13000        13000    2386.3354    3031.3445    1900.3735    1130.9711    271.17649   -1650.0793    26803.111   0.60494922 
   14000        14000    3661.2746    3114.2951    1898.8091     1215.486    270.95326    1399.2973    26803.111   0.60494922 
   15000        15000    2863.3921    3119.1537    1909.5152    1209.6385    272.48098   -654.29608    26803.111   0.60494922 
   16000        16000     2938.655    3062.3722    1910.8641    1151.5081    272.67346   -316.49645    26803.111   0.60494922 
   17000        17000    3603.4785    3092.7084    1909.7554     1182.953    272.51525    1306.6655    26803.111   0.60494922 
   18000        18000    2933.3955    3053.3218    1916.7112    1136.6106    273.50782   -306.79865    26803.111   0.60494922 
   19000        19000    2943.2284     3112.601    1914.2889     1198.312    273.16217   -433.29336    26803.111   0.60494922 
   20000        20000    3039.0335    3026.9529      1885.42    1141.5329    269.04267    30.904967    26803.111   0.60494922 
   21000        21000    3089.8219    3025.9303    1835.5236    1190.4067    261.92264    163.44936    26803.111   0.60494922 
   22000        22000    3278.5144    3104.8908    1895.6098     1209.281    270.49672    444.16834    26803.111   0.60494922 
   23000        23000    2683.7639     3107.844    1965.0258    1142.8182    280.40214   -1084.8928    26803.111   0.60494922 
   24000        24000     2918.278     3103.427    1877.4425    1225.9844    267.90432   -473.65283    26803.111   0.60494922 
   25000        25000    2801.0366    3050.8516    1869.5928    1181.2588     266.7842   -639.08335    26803.111   0.60494922 
   26000        26000    3115.8368    3140.5849    1950.3202    1190.2647     278.3037   -63.311132    26803.111   0.60494922 
   27000        27000    3056.9474    2975.2537    1834.7503    1140.5035    261.81229    208.99072    26803.111   0.60494922 
   28000        28000    3203.0545    3155.5821    1943.4297    1212.1524    277.32045    121.44505    26803.111   0.60494922 
   29000        29000    3039.0793    3070.2229    1909.7053    1160.5176     272.5081   -79.672451    26803.111   0.60494922 
   30000        30000    2830.0134    3084.4903    1889.1721    1195.3182     269.5781   -651.00951    26803.111   0.60494922 
   31000        31000    3314.4712    3131.2443    1920.8969    1210.3474    274.10511    468.73578    26803.111   0.60494922 
   32000        32000     2983.405    3044.8894    1889.5285    1155.3609    269.62894    -157.2911    26803.111   0.60494922 
   33000        33000    2953.7977    3053.1127    1940.8134    1112.2992    276.94712   -254.07006    26803.111   0.60494922 
   34000        34000    3188.1854     3155.397     1975.873     1179.524    281.94999    83.880122    26803.111   0.60494922 
   35000        35000    3489.1129    3057.7012    1888.0845    1169.6166     269.4229    1103.6488    26803.111   0.60494922 
   36000        36000    2664.8973    3075.0992    1873.0386    1202.0606     267.2759   -1049.3892    26803.111   0.60494922 
   37000        37000    3039.5711    3115.4891    1929.2797    1186.2094     275.3013   -194.21547    26803.111   0.60494922 
   38000        38000    3264.2942    3031.3986    1900.2581    1131.1405    271.16002     595.7994    26803.111   0.60494922 
   39000        39000    3216.2233    3098.2263    1924.2823     1173.944    274.58818    301.86304    26803.111   0.60494922 
   40000        40000    3111.7423    3115.4122    1887.0461    1228.3661    269.27471   -9.3883508    26803.111   0.60494922 
   41000        41000     3261.706    3044.4604    1882.3406    1162.1198    268.60326    555.76341    26803.111   0.60494922 
   42000        42000    3336.9974    3126.1005    1952.3286    1173.7719     278.5903    539.52188    26803.111   0.60494922 
   43000        43000    3188.5164    3107.7966    1912.3237    1195.4728    272.88175    206.49973    26803.111   0.60494922 
   44000        44000    3214.9464     3152.097    1942.0126    1210.0844    277.11824    160.78297    26803.111   0.60494922 
   45000        45000    3284.0902    3069.2855    1869.8875     1199.398    266.82625    549.51899    26803.111   0.60494922 
   46000        46000    3626.4384    3140.8578    1938.0703    1202.7874    276.55569    1242.2249    26803.111   0.60494922 
   47000        47000    2523.3683     3069.696    1902.9883    1166.7077    271.54961   -1397.6296    26803.111   0.60494922 
   48000        48000    2800.5258    3151.6999    1897.9257    1253.7743     270.8272   -898.38277    26803.111   0.60494922 
   49000        49000    2825.1232    3165.0418    1933.4202    1231.6216    275.89213   -869.58857    26803.111   0.60494922 
   50000        50000     2673.384    3078.7366    1875.7715    1202.9651    267.66587   -1036.9837    26803.111   0.60494922 
   51000        51000    2884.1273     3116.009    1922.3037    1193.7053    274.30585   -593.20575    26803.111   0.60494922 
   52000        52000    3165.9528    3080.5395    1902.9109    1177.6286    271.53857     218.5065    26803.111   0.60494922 
   53000        53000    3251.3075    3114.7828    1930.6258    1184.1571    275.49338     349.2609    26803.111   0.60494922 
   54000        54000    3072.2277    3089.4702    1885.1671    1204.3031    269.00659   -44.110173    26803.111   0.60494922 
   55000        55000    2658.0833     3145.992     1892.283    1253.7089    270.02201   -1248.1808    26803.111   0.60494922 
   56000        56000    2767.2671    3075.5462     1900.381    1175.1652    271.17756   -788.64745    26803.111   0.60494922 
   57000        57000    2775.2683    3054.0666    1916.2549    1137.8117    273.44271   -713.22895    26803.111   0.60494922 
   58000        58000    2856.6604    3132.9075    1964.6958    1168.2117    280.35505    -706.7025    26803.111   0.60494922 
   59000        59000    2958.6484    3139.2045    1919.1774    1220.0271    273.85974   -461.90331    26803.111   0.60494922 
   60000        60000    2882.4934    3065.1851    1917.3553    1147.8298    273.59973   -467.36675    26803.111   0.60494922 
   61000        61000    3235.1937     2998.652    1849.0405    1149.6114    263.85146    605.12718    26803.111   0.60494922 
   62000        62000    3208.4078     3126.687    1885.2538    1241.4332    269.01896    209.06026    26803.111   0.60494922 
   63000        63000    3472.1823    3113.5996    1916.5718    1197.0278    273.48792    917.33582    26803.111   0.60494922 
   64000        64000    2256.2934    3101.4109    1907.8559     1193.555    272.24421   -2162.0016    26803.111   0.60494922 
   65000        65000    2932.1076    3087.0706    1895.4969    1191.5738    270.48061   -396.43044    26803.111   0.60494922 
   66000        66000    3105.3572    3075.9543    1882.0646    1193.8897    268.56388    75.219144    26803.111   0.60494922 
   67000        67000    2912.5978    3082.7872    1914.1002     1168.687    273.13524     -435.383    26803.111   0.60494922 
   68000        68000    3428.2344    3107.6024    1912.1561    1195.4463    272.85782    820.24902    26803.111   0.60494922 
   69000        69000    2911.4707    3053.2455    1888.0657    1165.1798    269.42021   -362.69188    26803.111   0.60494922 
   70000        70000    3047.1344    3146.5951    1916.5994    1229.9956    273.49187   -254.44279    26803.111   0.60494922 
   71000        71000    3146.8041    3187.6309    1940.0363    1247.5946    276.83622   -104.44408    26803.111   0.60494922 
   72000        72000    2840.0877    3124.3836    1941.3536      1183.03     277.0242   -727.29315    26803.111   0.60494922 
   73000        73000    2592.1994    3056.4877    1891.1783    1165.3095    269.86436   -1187.7545    26803.111   0.60494922 
   74000        74000     2842.177    3007.7752    1858.5403    1149.2349    265.20705   -423.63761    26803.111   0.60494922 
   75000        75000    3638.6923     3150.527    1940.5139    1210.0131    276.90439     1248.837    26803.111   0.60494922 
   76000        76000    3325.9231    3129.3197    1905.3522    1223.9675    271.88693    502.95592    26803.111   0.60494922 
   77000        77000    2816.5156    3049.0831     1883.126    1165.9571    268.71534   -594.96029    26803.111   0.60494922 
   78000        78000    3415.7434    3005.7898    1905.8168     1099.973    271.95323    1048.7539    26803.111   0.60494922 
   79000        79000      2827.17    3113.3886    1953.8183    1159.5703    278.80287   -732.21203    26803.111   0.60494922 
   80000        80000    2706.4338    3049.6986      1862.07    1187.6287    265.71071   -878.14895    26803.111   0.60494922 
   81000        81000    3394.1557    3109.7181    1915.5971    1194.1211    273.34884     727.6556    26803.111   0.60494922 
   82000        82000    2887.7216    3104.9474    1896.4527    1208.4947    270.61701   -555.71281    26803.111   0.60494922 
   83000        83000    3200.9969    3039.3433    1909.4627    1129.8806    272.47348    413.54641    26803.111   0.60494922 
   84000        84000     3183.903    3061.6691    1902.9846    1158.6846    271.54908    312.70185    26803.111   0.60494922 
   85000        85000    3197.5959    3200.6702    1939.9524    1260.7178    276.82426   -7.8647138    26803.111   0.60494922 
   86000        86000    3170.4535    3035.2942    1902.0198    1133.2744    271.41141    345.76797    26803.111   0.60494922 
   87000        87000    3216.9229    3088.4783    1909.4919    1178.9864    272.47765    328.59036    26803.111   0.60494922 
   88000        88000    2425.9732    3082.4974    1910.5255    1171.9719    272.62514   -1679.5375    26803.111   0.60494922 
   89000        89000    2917.5395    3049.0228    1881.6042    1167.4186    268.49818   -336.36393    26803.111   0.60494922 
   90000        90000     3200.562    3091.9159    1897.2876    1194.6283    270.73615    277.94123    26803.111   0.60494922 
   91000        91000    2989.2457    3110.9938    1906.9963    1203.9975    272.12154   -311.45924    26803.111   0.60494922 
   92000        92000    2636.4357    3036.5385    1891.1584    1145.3801    269.86153   -1023.5534    26803.111   0.60494922 
   93000        93000    2856.3469    3119.0511    1937.2088    1181.8424    276.43275   -672.05674    26803.111   0.60494922 
   94000        94000    2585.3187    3159.9879    1963.3981    1196.5898    280.16988   -1470.1339    26803.111   0.60494922 
   95000        95000    3059.2481    3081.3501     1935.157    1146.1931    276.13997   -56.541904    26803.111   0.60494922 
   96000        96000    2613.7748     2991.518    1858.1143    1133.4037    265.14626   -966.35253    26803.111   0.60494922 
   97000        97000     3262.147    3035.2465    1856.5784    1178.6681    264.92708    580.46294    26803.111   0.60494922 
   98000        98000    3280.1829    3071.3232    1902.8686    1168.4546    271.53253    534.31036    26803.111   0.60494922 
   99000        99000    3144.2008    3040.1934    1858.5629    1181.6305    265.21027    266.07434    26803.111   0.60494922 
  100000       100000    3330.7983     3095.151    1897.1087    1198.0423    270.71061    602.83898    26803.111   0.60494922 
  101000       101000    3456.7548    3082.9658    1904.9012    1178.0645    271.82258     956.2367    26803.111   0.60494922 
  102000       102000    3599.0348    3165.9097    1982.8065    1183.1032    282.93938    1108.0318    26803.111   0.60494922 
  103000       103000    2936.8632     3105.782    1919.4809    1186.3011    273.90305   -432.13269    26803.111   0.60494922 
  104000       104000    3208.6851    3108.0179    1891.2828    1216.7351    269.87928    257.52934    26803.111   0.60494922 
  105000       105000    2895.5035    3049.1637    1870.4707     1178.693    266.90946   -393.09742    26803.111   0.60494922 
  106000       106000    3572.7054    3123.2326    1898.3572    1224.8755    270.88877    1149.8528    26803.111   0.60494922 
  107000       107000    2995.8651    3178.7153    1952.7439    1225.9713    278.64956   -467.77214    26803.111   0.60494922 
  108000       108000    3102.3949    3081.9693    1916.0076    1165.9618    273.40741    52.253216    26803.111   0.60494922 
  109000       109000    3630.3577    3020.7907    1840.1894    1180.6014    262.58843      1559.41    26803.111   0.60494922 
  110000       110000    2796.4712    3113.8366    1959.4762    1154.3603    279.61024   -811.89237    26803.111   0.60494922 
  111000       111000    3555.3268    3105.3958    1903.1856    1202.2102    271.57776    1151.0251    26803.111   0.60494922 
  112000       112000    3283.0823    3052.4056    1847.8497    1204.5559    263.68153    590.12317    26803.111   0.60494922 
  113000       113000    2537.8992    3073.3471    1908.1122    1165.2349    272.28078   -1369.7967    26803.111   0.60494922 
  114000       114000    2824.2655    3139.9394    1902.3627    1237.5767    271.46034   -807.56527    26803.111   0.60494922 
  115000       115000    2635.8283    3084.0148    1938.6703    1145.3445     276.6413   -1146.5624    26803.111   0.60494922 
  116000       116000    3335.2206    3060.7995    1906.3668    1154.4328    272.03171     702.0311    26803.111   0.60494922 
  117000       117000    2807.5481    3073.4187    1838.1866    1235.2321    262.30265   -680.15703    26803.111   0.60494922 
  118000       118000    2923.1689    3041.6105    1900.9564    1140.6541    271.25967    -303.0004    26803.111   0.60494922 
  119000       119000    2856.8553    3122.6201    1923.5597    1199.0604    274.48507   -679.88648    26803.111   0.60494922 
  120000       120000    3188.8121    2928.0355    1826.8091    1101.2264    260.67911    667.12561    26803.111   0.60494922 
  121000       121000    3439.8857    3098.8447    1906.5292    1192.3155    272.05489    872.46017    26803.111   0.60494922 
  122000       122000    3215.8518    3083.7343    1928.5213     1155.213    275.19308    337.98641    26803.111   0.60494922 
  123000       123000    2689.2376    3035.6773    1875.4541    1160.2233    267.62058    -886.2712    26803.111   0.60494922 
  124000       124000    3577.0667    3104.0447    1943.5563    1160.4884    277.33852    1210.0974    26803.111   0.60494922 
  125000       125000    3389.8269    3024.9123    1852.4483     1172.464    264.33774    933.53393    26803.111   0.60494922 
  126000       126000    2537.5323    3141.4921    1907.9091     1233.583    272.25179   -1545.0657    26803.111   0.60494922 
  127000       127000     3294.337    3089.0967     1864.884    1224.2127    266.11226     525.0512    26803.111   0.60494922 
  128000       128000    2737.2834    3209.7678    1955.5161    1254.2517    279.04514   -1208.7219    26803.111   0.60494922 
  129000       129000    3100.4604    3091.4164     1890.169    1201.2475    269.72034    23.136539    26803.111   0.60494922 
  130000       130000    3243.8087    3063.7193    1904.1897    1159.5296    271.72104     460.7095    26803.111   0.60494922 
  131000       131000    3218.8945    3131.2787    1935.9627    1195.3159    276.25495     224.1411    26803.111   0.60494922 
  132000       132000    3414.2742    3085.6052    1887.4766    1198.1285    269.33615    840.80968    26803.111   0.60494922 
  133000       133000    2746.9056    3060.9193    1909.8524    1151.0669    272.52909   -803.31798    26803.111   0.60494922 
  134000       134000    3048.0278    3156.0017    1965.7941    1190.2076    280.51178   -276.22173    26803.111   0.60494922 
  135000       135000    2482.0552    3064.7644    1864.3813     1200.383    266.04054   -1490.7018    26803.111   0.60494922 
  136000       136000    2480.4475    3108.3016    1908.0212    1200.2804    272.26779   -1606.1925    26803.111   0.60494922 
  137000       137000    3251.3832    3125.1931    1916.1045    1209.0886    273.42125    322.82268    26803.111   0.60494922 
  138000       138000    3088.2697    3073.9787    1898.9622    1175.0165     270.9751    36.559652    26803.111   0.60494922 
  139000       139000    2824.9397    3123.0116    1904.4333    1218.5782    271.75581   -762.53514    26803.111   0.60494922 
  140000       140000    3378.6267    3055.7691    1902.2087    1153.5604    271.43837    825.94279    26803.111   0.60494922 
  141000       141000     3294.416    3079.5935      1894.64    1184.9534    270.35835    549.56473    26803.111   0.60494922 
  142000       142000    3418.4726    3087.0378    1882.6307    1204.4072    268.64465    847.88507    26803.111   0.60494922 
  143000       143000    2851.5104    3093.1228    1886.8373    1206.2855    269.24493   -618.09916    26803.111   0.60494922 
  144000       144000    3337.6804    3073.3582    1865.0978    1208.2603    266.14278    676.19612    26803.111   0.60494922 
  145000       145000    2983.4469     3049.906    1885.8277    1164.0784    269.10085    -170.0174    26803.111   0.60494922 
  146000       146000    2976.9687    3109.8468    1928.3772    1181.4696    275.17251    -339.9322    26803.111   0.60494922 
  147000       147000    3131.7582    3096.0395     1915.202    1180.8375    273.29247    91.376388    26803.111   0.60494922 
  148000       148000    3287.3988     3128.291    1931.7019    1196.5891    275.64694    407.03387    26803.111   0.60494922 
  149000       149000    3267.2698     3097.594    1901.9681    1195.6259    271.40403    434.06913    26803.111   0.60494922 
  150000       150000    3056.8034     3022.237    1887.0676    1135.1694    269.27779    88.428726    26803.111   0.60494922 
  151000       151000    3181.2725    3111.5195    1923.5546    1187.9649    274.48435    178.44397    26803.111   0.60494922 
  152000       152000    2675.0273    3087.2708     1904.772    1182.4988    271.80414   -1054.6121    26803.111   0.60494922 
  153000       153000    2777.6971    3083.1278    1901.1084    1182.0195    271.28136   -781.36099    26803.111   0.60494922 
  154000       154000    3554.4977    3151.6195    1946.7285    1204.8909    277.79119    1030.6535    26803.111   0.60494922 
  155000       155000    3388.2395    3101.2636    1886.2083    1215.0553    269.15517    734.14909    26803.111   0.60494922 
  156000       156000    2771.8043    3110.5516    1896.7836     1213.768    270.66423   -866.59214    26803.111   0.60494922 
  157000       157000    3002.0431    3133.1043     1908.594    1224.5103    272.34953   -335.28427    26803.111   0.60494922 
  158000       158000    3399.0186    3130.8673    1945.6555    1185.2118    277.63807    685.99139    26803.111   0.60494922 
  159000       159000     3467.467    3132.5566    1925.0878    1207.4688    274.70313    856.77657    26803.111   0.60494922 
  160000       160000    3291.1466    3090.5269    1878.8311    1211.6958    268.10246    513.23042    26803.111   0.60494922 
  161000       161000    3132.3985    3129.3634    1907.5555     1221.808    272.20133    7.7644893    26803.111   0.60494922 
  162000       162000    2861.0873    3034.0473    1867.1872    1166.8601    266.44093   -442.47093    26803.111   0.60494922 
  163000       163000    2696.1476    3091.9795    1905.9433    1186.0362    271.97128   -1012.6273    26803.111   0.60494922 
  164000       164000    3211.4319    3167.6944    1951.6469    1216.0475    278.49302    111.89047    26803.111   0.60494922 
  165000       165000    2896.4923    3070.8314    1891.4476    1179.3838    269.90279   -445.99865    26803.111   0.60494922 
  166000       166000    2722.9387    3107.9821     1881.871    1226.1111    268.53625   -985.02805    26803.111   0.60494922 
  167000       167000    2726.4334    3042.1919    1898.0976    1144.0943    270.85172   -807.78159    26803.111   0.60494922 
  168000       168000    2998.5553    3109.3597    1936.3784    1172.9813    276.31426   -283.46252    26803.111   0.60494922 
  169000       169000    3389.0592    3096.6873    1905.8863     1190.801    271.96314    747.95361    26803.111   0.60494922 
  170000       170000    2749.6297    3107.4131    1938.3517    1169.0614    276.59585   -915.29094    26803.111   0.60494922 
  171000       171000    2931.4253    3087.1987    1878.1802    1209.0185    268.00959   -398.50349    26803.111   0.60494922 
  172000       172000    3106.5255     3095.514     1886.055    1209.4589     269.1333    28.170031    26803.111   0.60494922 
  173000       173000    3565.4667     3160.534     1956.417     1204.117    279.17369    1035.9095    26803.111   0.60494922 
  174000       174000     3061.376    3072.4122    1877.6906    1194.7216    267.93972   -28.233019    26803.111   0.60494922 
  175000       175000     3707.498    3186.9229    1969.3082    1217.6147    281.01322    1331.7488    26803.111   0.60494922 
  176000       176000    3606.0352    3094.8629    1909.3126    1185.5502    272.45207    1307.6945    26803.111   0.60494922 
  177000       177000    2882.1423    3026.4369    1841.8204    1184.6165    262.82117   -369.13816    26803.111   0.60494922 
  178000       178000    3113.7834    3049.5817    1874.7975    1174.7842    267.52688    164.24258    26803.111   0.60494922 
  179000       179000    3602.3269    3157.4659    1992.0622    1165.4037    284.26014    1138.0552    26803.111   0.60494922 
  180000       180000    2951.8346    3100.9814    1924.2551    1176.7263    274.58431   -381.55138    26803.111   0.60494922 
  181000       181000    3512.8992    3178.7307    1947.2686    1231.4621    277.86826    854.87849    26803.111   0.60494922 
  182000       182000    2439.9312    3091.8947    1889.4601    1202.4345    269.61919   -1667.8698    26803.111   0.60494922 
  183000       183000    3325.6047    2986.3378    1885.2221    1101.1158    269.01443    867.92131    26803.111   0.60494922 
  184000       184000    3352.3132       3084.5    1926.5933    1157.9066    274.91796    685.12694    26803.111   0.60494922 
  185000       185000    2559.3117    3120.0224    1904.2729    1215.7495    271.73291   -1434.4246    26803.111   0.60494922 
  186000       186000    3168.5582    3166.7275    1933.9877    1232.7397    275.97312    4.6833994    26803.111   0.60494922 
  187000       187000    2741.5634    3072.2013    1889.8084    1182.3929    269.66889   -845.84648    26803.111   0.60494922 
  188000       188000    2982.2393    3093.5933    1917.4025    1176.1908    273.60646   -284.86854    26803.111   0.60494922 
  189000       189000    3121.1899    3171.3587    1945.5958    1225.7629    277.62955   -128.34298    26803.111   0.60494922 
  190000       190000    2646.9484    3143.8134    1957.4443    1186.3691    279.32029    -1271.093    26803.111   0.60494922 
  191000       191000    2421.6529    3094.3106    1885.5164    1208.7942    269.05643   -1720.8103    26803.111   0.60494922 
  192000       192000    3234.4995    3087.8555    1909.6463    1178.2092    272.49968    375.14866    26803.111   0.60494922 
  193000       193000    3178.9435    3041.2214    1881.7136    1159.5077    268.51379    352.32444    26803.111   0.60494922 
  194000       194000    3233.0305    3056.5623     1850.947    1205.6153     264.1235    451.44568    26803.111   0.60494922 
  195000       195000    3497.5758    3121.5422    1946.5927    1174.9495     277.7718    961.97886    26803.111   0.60494922 
  196000       196000    3018.3614    3087.1025    1890.8479    1196.2546    269.81722   -175.85517    26803.111   0.60494922 
  197000       197000     2817.957    3130.8547    1923.6746      1207.18    274.50148   -800.46295    26803.111   0.60494922 
  198000       198000    2535.7783    3030.5244    1830.4286    1200.0957    261.19561   -1265.6724    26803.111   0.60494922 
  199000       199000    3212.5433    3149.9019    1936.7499     1213.152    276.36727    160.25087    26803.111   0.60494922 
  200000       200000    2625.9278     3041.107    1898.3659    1142.7411    270.89001   -1062.1221    26803.111   0.60494922 
  201000       201000    3085.9114     3084.976    1903.5094    1181.4666    271.62397    2.3929325    26803.111   0.60494922 
  202000       202000    2886.8192    3105.0372     1879.173    1225.8643    268.15125   -558.25098    26803.111   0.60494922 
  203000       203000    3283.1111    3101.6575    1908.4859    1193.1716     272.3341    464.19938    26803.111   0.60494922 
  204000       204000    3096.4933    3081.2964     1895.133    1186.1634    270.42869    38.876983    26803.111   0.60494922 
  205000       205000    2778.7636    3005.6355    1901.1135     1104.522    271.28208   -580.38955    26803.111   0.60494922 
  206000       206000    2465.6759    3067.1439    1899.0275    1168.1163    270.98443   -1538.6911    26803.111   0.60494922 
  207000       207000    3304.5287    3099.0415    1889.6939    1209.3477    269.65254    525.68255    26803.111   0.60494922 
  208000       208000    3549.8084    3140.1143    1964.2497    1175.8645     280.2914    1048.0902    26803.111   0.60494922 
  209000       209000     3495.529     3096.839    1939.8701    1156.9689    276.81252    1019.9392    26803.111   0.60494922 
  210000       210000    2761.9058    3113.0278    1849.4574    1263.5704    263.91095   -898.24953    26803.111   0.60494922 
  211000       211000    3226.5156    3089.1475     1927.309    1161.8386    275.02009    351.41845    26803.111   0.60494922 
  212000       212000    3009.6689    3123.9386     1886.081    1237.8575      269.137    -292.3276    26803.111   0.60494922 
  213000       213000    2829.6095     3028.056    1901.0523    1127.0038    271.27335   -507.67122    26803.111   0.60494922 
  214000       214000     2561.616    3084.7183    1894.1673     1190.551    270.29089   -1338.2139    26803.111   0.60494922 
  215000       215000    3322.8183     3140.301    1931.9545    1208.3465    275.68299    466.92039    26803.111   0.60494922 
  216000       216000    3335.1737    3002.8501    1891.7837    1111.0664    269.95076    850.15887    26803.111   0.60494922 
  217000       217000    3710.8944    3082.8862    1904.8398    1178.0464    271.81382    1606.5869    26803.111   0.60494922 
  218000       218000    2787.7918    3136.8654     1964.893    1171.9724    280.38319   -893.00899    26803.111   0.60494922 
  219000       219000    2676.8083    3128.2456    1922.8323    1205.4133    274.38127   -1154.8786    26803.111   0.60494922 
  220000       220000    2554.5765    3032.2796    1872.7689    1159.5107    267.23741   -1222.0724    26803.111   0.60494922 
  221000       221000    2486.3705    3091.0037    1901.7328    1189.2709    271.37046   -1546.7884    26803.111   0.60494922 
  222000       222000    2596.2158    3107.1208    1844.6363    1262.4844      263.223   -1307.0103    26803.111   0.60494922 
  223000       223000    3007.7383    3025.0471    1861.5762    1163.4708    265.64026   -44.279824    26803.111   0.60494922 
  224000       224000    3689.7571    3059.1704    1869.8522    1189.3182    266.82122    1613.1832    26803.111   0.60494922 
  225000       225000     3007.742    3112.7223    1935.1383     1177.584     276.1373   -268.56321    26803.111   0.60494922 
  226000       226000    3243.3309    3062.8343    1914.1391    1148.6952    273.14078    461.75118    26803.111   0.60494922 
  227000       227000    3640.0675    3132.6931    1938.1245    1194.5686    276.56343    1297.9784    26803.111   0.60494922 
  228000       228000    3183.0918    3126.5041    1926.9912    1199.5129    274.97474    144.76413    26803.111   0.60494922 
  229000       229000    2723.5778    3094.4138    1879.3528     1215.061    268.17691   -948.68229    26803.111   0.60494922 
  230000       230000    3777.5888    3036.4499    1886.0246    1150.4253    269.12895    1896.0009    26803.111   0.60494922 
  231000       231000    3410.7779    3068.8008     1924.036    1144.7648    274.55304    874.85456    26803.111   0.60494922 
  232000       232000    2997.9543    3054.3771    1917.7592    1136.6178    273.65737    -144.3422    26803.111   0.60494922 
  233000       233000    3534.5131    3118.0191    1921.5347    1196.4845    274.19611    1065.4857    26803.111   0.60494922 
  234000       234000    2946.5411    3040.6306    1884.9133    1155.7173    268.97037    -240.7023    26803.111   0.60494922 
  235000       235000    3174.5639    3097.8684    1913.5377    1184.3307    273.05497    196.20441    26803.111   0.60494922 
  236000       236000    2870.6548    3079.1516    1919.5544    1159.5972    273.91353   -533.38183    26803.111   0.60494922 
  237000       237000    3698.5751    3073.9228    1886.7334    1187.1894     269.2301    1598.0019    26803.111   0.60494922 
  238000       238000    3522.7377    2995.6572      1879.29    1116.3672    268.16795    1348.3912    26803.111   0.60494922 
  239000       239000    2366.4571    3111.6927     1967.355    1144.3377    280.73451    -1906.481    26803.111   0.60494922 
  240000       240000    3155.8215    3100.3784    1876.9652    1223.4132    267.83621    141.83608    26803.111   0.60494922 
  241000       241000     3245.172     3050.686    1886.9064    1163.7796    269.25478    497.53927    26803.111   0.60494922 
  242000       242000    3276.4753    3122.6779    1900.7497    1221.9282    271.23017    393.44855    26803.111   0.60494922 
  243000       243000    3429.0154    3127.5265    1891.1361    1236.3904    269.85834    771.27695    26803.111   0.60494922 
  244000       244000    3337.6187    3042.6295    1883.8702    1158.7593    268.82153    754.64906    26803.111   0.60494922 
  245000       245000    3481.8969    3038.8951    1847.2119    1191.6831    263.59052    1133.2988    26803.111   0.60494922 
  246000       246000    3209.6496    3107.6878    1930.1985    1177.4893    275.43241    260.84117    26803.111   0.60494922 
  247000       247000    2602.8378    3079.3586    1899.6094    1179.7492    271.06745   -1219.0479    26803.111   0.60494922 
  248000       248000    3089.8702    3105.4831    1925.7835    1179.6996    274.80241   -39.941279    26803.111   0.60494922 
  249000       249000    3441.1896    3168.6592    1955.8492      1212.81    279.09267    697.19439    26803.111   0.60494922 
  250000       250000    3476.0836     3087.204    1894.1404    1193.0636    270.28705    994.84186    26803.111   0.60494922 
  251000       251000    3433.1929    3120.0902    1923.3795    1196.7106    274.45937    800.98765    26803.111   0.60494922 
  252000       252000    2815.9017    3145.2215    1926.7002    1218.5214    274.93321   -842.47464    26803.111   0.60494922 
  253000       253000    1776.7403    3047.4246    1846.2479    1201.1767    263.45296   -3250.6977    26803.111   0.60494922 
  254000       254000    3511.2787    3057.5018     1902.795    1154.7068    271.52204    1160.8639    26803.111   0.60494922 
  255000       255000    3463.0642    3133.4603     1950.048    1183.4123    278.26486    843.20114    26803.111   0.60494922 
  256000       256000    3287.0885    3048.7775    1870.0729    1178.7046    266.85271    609.65348    26803.111   0.60494922 
  257000       257000    3504.2295    3117.5369    1905.9705    1211.5664    271.97516    989.24703    26803.111   0.60494922 
  258000       258000    3268.9718    3023.5286    1853.0282    1170.5004    264.42049    627.89899    26803.111   0.60494922 
  259000       259000    3483.6967    3071.3842    1908.6282     1162.756    272.35441    1054.7885    26803.111   0.60494922 
  260000       260000    3689.1411    3186.9053    1946.6236    1240.2817    277.77622    1284.8327    26803.111   0.60494922 
  261000       261000    3489.9161    3078.8082    1896.9009    1181.9073    270.68096     1051.707    26803.111   0.60494922 
  262000       262000    2886.6038    3028.3929     1872.253      1156.14    267.16379    -362.7287    26803.111   0.60494922 
  263000       263000    2679.2919     3020.366    1880.2747    1140.0913    268.30846   -872.54464    26803.111   0.60494922 
  264000       264000    3302.4601    3102.1077    1908.0716    1194.0361    272.27498    512.54657    26803.111   0.60494922 
  265000       265000    3117.6267    3021.6132    1849.2115    1172.4016    263.87586    245.62439    26803.111   0.60494922 
  266000       266000    2987.2855    3061.6763    1892.4627    1169.2136    270.04765   -190.30835    26803.111   0.60494922 
  267000       267000    2997.9991    2981.5016    1841.6732    1139.8284    262.80017    42.204284    26803.111   0.60494922 
  268000       268000    2651.7643    3074.0719    1889.7146    1184.3573     269.6555   -1080.3583    26803.111   0.60494922 
  269000       269000    2625.6299    3043.7874    1896.3729    1147.4145    270.60562   -1069.7413    26803.111   0.60494922 
  270000       270000    3237.1993    3102.3302    1888.9903    1213.3399    269.55215    345.02551    26803.111   0.60494922 
  271000       271000    2809.9732    3041.2661    1895.2102    1146.0559     270.4397   -591.69953    26803.111   0.60494922 
  272000       272000    3113.4635    3053.7787    1898.5241    1155.2547    270.91258    152.68718    26803.111   0.60494922 
  273000       273000    3528.0895    3152.1402    1929.0063    1223.1339    275.26229    961.76329    26803.111   0.60494922 
  274000       274000     2737.309    3087.0849     1904.129    1182.9559    271.71238   -894.80558    26803.111   0.60494922 
  275000       275000    3037.6643    3089.0494    1913.4607    1175.5887    273.04399   -131.45453    26803.111   0.60494922 
  276000       276000    3316.8123    3012.7638    1906.5179    1106.2459    272.05327    777.82476    26803.111   0.60494922 
  277000       277000    3416.0109    3118.5548    1954.8348    1163.7199    278.94793    760.95999    26803.111   0.60494922 
  278000       278000    2857.6234    3157.1074    1937.3519    1219.7555    276.45318   -766.14763    26803.111   0.60494922 
  279000       279000    2926.7371    3077.4194    1919.7481    1157.6714    273.94117   -385.47934    26803.111   0.60494922 
  280000       280000    2672.1878    3057.0513    1869.5024    1187.5489     266.7713   -984.56778    26803.111   0.60494922 
  281000       281000    2486.7229    3207.4117    1976.1445    1231.2672    281.98874   -1843.6848    26803.111   0.60494922 
  282000       282000    3523.7031    3080.9887    1903.0593    1177.9294    271.55974    1132.5636    26803.111   0.60494922 
  283000       283000    3515.3459    3025.6034    1845.5243    1180.0791    263.34971     1252.872    26803.111   0.60494922 
  284000       284000    2902.4738    3108.4856    1927.4109    1181.0747    275.03463   -527.02476    26803.111   0.60494922 
  285000       285000    3002.3262    3094.1726    1891.8242    1202.3484    269.95653   -234.96366    26803.111   0.60494922 
  286000       286000    3381.9374    3091.2587    1884.5345    1206.7242    268.91632    743.62191    26803.111   0.60494922 
  287000       287000    3329.5427    3047.6399    1874.3683    1173.2716    267.46564    721.17107    26803.111   0.60494922 
  288000       288000    3496.4236    3132.2655     1895.629    1236.6364    270.49947    931.59877    26803.111   0.60494922 
  289000       289000    3219.1165    2970.1629    1831.2663    1138.8965    261.31514    636.87966    26803.111   0.60494922 
  290000       290000    3582.1884    3106.4131    1930.9819    1175.4312     275.5442    1217.1409    26803.111   0.60494922 
  291000       291000    2935.8772      3159.95    1947.7471    1212.2029    277.93653    -573.2288    26803.111   0.60494922 
  292000       292000    2990.4052    3097.7148    1933.5138     1164.201    275.90549   -274.52221    26803.111   0.60494922 
  293000       293000    2709.8857    3014.6045    1859.3475     1155.257    265.32223   -779.53949    26803.111   0.60494922 
  294000       294000    2841.0146    3091.2627    1909.8115    1181.4512    272.52326   -640.19119    26803.111   0.60494922 
  295000       295000    3530.6288     3126.597    1937.8552    1188.7418      276.525    1033.6045    26803.111   0.60494922 
  296000       296000    3006.0625    3120.1796    1909.7457     1210.434    272.51387   -291.93741    26803.111   0.60494922 
  297000       297000    2632.7728    3037.7295    1905.6104    1132.1191    271.92378   -1035.9707    26803.111   0.60494922 
  298000       298000    2847.8716    3058.3592    1901.7956    1156.5637    271.37941   -538.47492    26803.111   0.60494922 
  299000       299000    3571.6363    3128.7521    1912.0677    1216.6844    272.84521    1132.9979    26803.111   0.60494922 
  300000       300000    3292.5251    3095.4292    1909.5304    1185.8988    272.48315    504.21578    26803.111   0.60494922 
  301000       301000    3153.2499    3050.0103    1872.3291    1177.6812    267.17465    264.11027    26803.111   0.60494922 
  302000       302000    3327.2011    3028.4537    1861.7476    1166.7061    265.66472    764.26344    26803.111   0.60494922 
  303000       303000    2681.6549    3053.4653    1867.5808    1185.8845    266.49709   -951.17488    26803.111   0.60494922 
  304000       304000    2550.1579      3168.34     1948.546    1219.7941    278.05053   -1581.4496    26803.111   0.60494922 
  305000       305000    2972.6873    3026.6645    1842.0311    1184.6334    262.85124   -138.08592    26803.111   0.60494922 
  306000       306000    2160.0909    3145.1693    1960.2535    1184.9158    279.72115    -2520.053    26803.111   0.60494922 
  307000       307000    3268.0713    3063.8894    1855.6172    1208.2721    264.78993    522.34364    26803.111   0.60494922 
  308000       308000    3304.0146     3066.793    1878.5622    1188.2308     268.0641     606.8665    26803.111   0.60494922 
  309000       309000    3064.0848    3098.4917    1901.8571    1196.6346     271.3882   -88.020532    26803.111   0.60494922 
  310000       310000    3092.5138    3098.5121     1898.173    1200.3391    270.86249   -15.345029    26803.111   0.60494922 
  311000       311000      3331.92    2981.9543    1877.8018    1104.1524    267.95559    895.29145    26803.111   0.60494922 
  312000       312000    3072.4986    3107.5021    1925.5288    1181.9733    274.76606   -89.546928    26803.111   0.60494922 
  313000       313000    2962.0452    3104.6591    1874.1608    1230.4983    267.43604   -364.83877    26803.111   0.60494922 
  314000       314000    2814.1167    3019.7135    1878.0279    1141.6856    267.98785   -525.96311    26803.111   0.60494922 
  315000       315000    3749.9061    3106.4728    1884.8314    1221.6414    268.95868     1646.048    26803.111   0.60494922 
  316000       316000    2562.4556    3003.1407    1830.2733    1172.8674    261.17345   -1127.3721    26803.111   0.60494922 
  317000       317000    3712.1332    3068.0874    1911.6297    1156.4577    272.78271    1647.6147    26803.111   0.60494922 
  318000       318000    3894.4616    3118.5231    1936.6224    1181.9007    276.34908    1985.0259    26803.111   0.60494922 
  319000       319000    3767.3148    3033.0092    1850.9255    1182.0837    264.12044    1878.5197    26803.111   0.60494922 
  320000       320000    3697.1751    3132.1961    1920.9503    1211.2458    274.11273    1445.3439    26803.111   0.60494922 
  321000       321000    3674.8022    2991.9717    1881.1858    1110.7859    268.43847    1746.8346    26803.111   0.60494922 
  322000       322000    3238.4377     3038.384    1859.7448    1178.6392    265.37892    511.78243    26803.111   0.60494922 
  323000       323000    2704.1899    3129.1414     1935.517    1193.6244    276.19135   -1087.1219    26803.111   0.60494922 
  324000       324000    2825.8046    3078.9087    1937.3367     1141.572      276.451   -647.49734    26803.111   0.60494922 
  325000       325000    3028.7792    3167.2938    1943.0651    1224.2287    277.26843   -354.35174    26803.111   0.60494922 
  326000       326000    3210.9026    3118.2763    1923.9072     1194.369    274.53467    236.95904    26803.111   0.60494922 
  327000       327000     2843.251    2996.6578    1903.9258     1092.732    271.68339    -392.4492    26803.111   0.60494922 
  328000       328000    3301.4754     3060.599    1903.7429    1156.8561    271.65729    616.21644    26803.111   0.60494922 
  329000       329000    2417.3113    3068.9861    1932.9679    1136.0183    275.82759   -1667.1314    26803.111   0.60494922 
  330000       330000    3038.8341    3089.9956    1905.2981    1184.6974    271.87922   -130.88255    26803.111   0.60494922 
  331000       331000    3350.6658    3149.6636    1899.1684    1250.4952    271.00452    514.20916    26803.111   0.60494922 
  332000       332000    2844.8511    3016.6086    1863.8765    1152.7322    265.96849   -439.39444    26803.111   0.60494922 
  333000       333000    2847.2799    3103.3774    1920.2984     1183.079    274.01971    -655.1553    26803.111   0.60494922 
  334000       334000    3275.4335    3128.8185    1917.3527    1211.4657    273.59937    375.07449    26803.111   0.60494922 
  335000       335000    2508.9078    2953.7573    1819.5468    1134.2105    259.64281   -1138.0254    26803.111   0.60494922 
  336000       336000    1880.2555    3106.7868     1887.653    1219.1338    269.36132   -3137.7445    26803.111   0.60494922 
  337000       337000    2815.1311     3147.613    1920.5559     1227.057    274.05645   -850.56384    26803.111   0.60494922 
  338000       338000     3192.615    3071.9102    1883.9616    1187.9486    268.83456    308.79008    26803.111   0.60494922 
  339000       339000    2980.7926     3111.716    1921.2029    1190.5131    274.14877   -334.93162    26803.111   0.60494922 
  340000       340000    3280.5075    3144.2986    1953.7588    1190.5398    278.79438     348.4531    26803.111   0.60494922 
  341000       341000    3315.9455    3098.6524     1898.765    1199.8874    270.94697    555.88483    26803.111   0.60494922 
  342000       342000    3387.8062    3069.6659    1873.2843    1196.3816    267.31096    813.87486    26803.111   0.60494922 
  343000       343000    3078.5331    3150.5521    1911.8301     1238.722    272.81131   -184.24109    26803.111   0.60494922 
  344000       344000    2753.9011    3106.6349    1918.7936    1187.8413    273.80498   -902.37266    26803.111   0.60494922 
  345000       345000    3124.1029    3034.9659    1857.4158    1177.5501    265.04659    228.03252    26803.111   0.60494922 
  346000       346000    3014.7331    3126.8147    1889.0426    1237.7721    269.55961   -286.73007    26803.111   0.60494922 
  347000       347000    2733.8365    3065.9205    1862.2717    1203.6488     265.7395   -849.54611    26803.111   0.60494922 
  348000       348000    3180.9787    3105.4316    1927.4737    1177.9579    275.04359    193.26643    26803.111   0.60494922 
  349000       349000     3273.055    3022.0508    1898.0486    1124.0022    270.84474    642.12544    26803.111   0.60494922 
  350000       350000    3086.4298    3093.9993    1925.0611    1168.9382    274.69932   -19.364518    26803.111   0.60494922 
  351000       351000    3147.5906    3081.4317    1909.2032    1172.2285    272.43646    169.24922    26803.111   0.60494922 
  352000       352000    2494.7922    3074.1973    1869.1405    1205.0568    266.71965   -1482.2492    26803.111   0.60494922 
  353000       353000    3391.2612    3094.2777    1903.9653    1190.3124    271.68902    759.75079    26803.111   0.60494922 
  354000       354000    3782.2126    3112.1994     1924.688    1187.5114    274.64609    1714.0452    26803.111   0.60494922 
  355000       355000    2934.5513    3133.2909    1932.5444    1200.7466    275.76716   -508.42099    26803.111   0.60494922 
  356000       356000    3182.3378     3059.348    1838.3452    1221.0028    262.32528    314.63589    26803.111   0.60494922 
  357000       357000    2845.3158    3161.1687    1943.8344    1217.3343    277.37821   -808.02306    26803.111   0.60494922 
  358000       358000    2847.5199    3122.9923    1921.8966    1201.0958    274.24776   -704.72077    26803.111   0.60494922 
  359000       359000    3555.9136    3036.1473    1849.3355    1186.8118    263.89355    1329.6799    26803.111   0.60494922 
  360000       360000    3053.9714    3116.0282    1925.8079    1190.2204    274.80588   -158.75535    26803.111   0.60494922 
  361000       361000    3502.1399    3144.9617    1955.8941    1189.0676    279.09908    913.74274    26803.111   0.60494922 
  362000       362000    3099.3549    3108.1459    1901.7323    1206.4136    271.37038     -22.4894    26803.111   0.60494922 
  363000       363000    3299.7918    3068.1873    1893.1759    1175.0113    270.14942    592.49681    26803.111   0.60494922 
  364000       364000    2506.7538    3210.5631    1919.2523    1291.3108    273.87043   -1800.5033    26803.111   0.60494922 
  365000       365000    2573.9074    3046.9368    1862.7848    1184.1521    265.81271   -1210.1161    26803.111   0.60494922 
  366000       366000    2590.5044    3126.2195    1897.6247    1228.5948    270.78425   -1370.4804    26803.111   0.60494922 
  367000       367000    3104.4697    3086.8211    1878.8114    1208.0097    268.09966    45.148934    26803.111   0.60494922 
  368000       368000    3299.5195    3131.4447    1922.5113    1208.9334    274.33548    429.97328    26803.111   0.60494922 
  369000       369000    2534.7281    3162.3157    1929.3594    1232.9563    275.31268   -1605.5111    26803.111   0.60494922 
  370000       370000    2652.8751    3113.1926     1914.623    1198.5696    273.20984   -1177.5962    26803.111   0.60494922 
  371000       371000    2858.4183    3057.1862    1908.1823    1149.0039    272.29078   -508.49323    26803.111   0.60494922 
  372000       372000    3302.7888    3054.9511    1929.0817    1125.8694    275.27305    634.02491    26803.111   0.60494922 
  373000       373000    2690.7531    3148.8361    1938.7502    1210.0859    276.65271   -1171.8798    26803.111   0.60494922 
  374000       374000     2270.763    3030.1598    1871.5973    1158.5625    267.07023   -1942.7085    26803.111   0.60494922 
  375000       375000    3790.6221    3124.6637    1912.8259    1211.8378    272.95341    1703.6721    26803.111   0.60494922 
  376000       376000    3725.6517     3061.909    1885.8361    1176.0729    269.10205    1698.0039    26803.111   0.60494922 
  377000       377000    3169.8369    3119.0987    1954.6705    1164.4282    278.92448    129.79975    26803.111   0.60494922 
  378000       378000    2589.8706    3103.5904    1917.4857    1186.1047    273.61834   -1314.2113    26803.111   0.60494922 
  379000       379000    3434.9898    3103.8011    1924.1334    1179.6677    274.56694    847.25566    26803.111   0.60494922 
  380000       380000    3070.5013    3165.8036    1897.5215    1268.2821    270.76952   -243.80493    26803.111   0.60494922 
  381000       381000    3562.3505    3088.6995    1898.5391    1190.1604    270.91473    1211.7063    26803.111   0.60494922 
  382000       382000    3208.1272     3165.042    1940.7037    1224.3383    276.93147    110.22166    26803.111   0.60494922 
  383000       383000    3059.5959    3125.7263    1922.0354    1203.6909    274.26757   -169.17661    26803.111   0.60494922 
  384000       384000    3145.1184    3086.2602    1914.7309    1171.5292    273.22525    150.57251    26803.111   0.60494922 
  385000       385000    3435.3976    3095.6575    1918.0144    1177.6431    273.69378    869.13195    26803.111   0.60494922 
  386000       386000    2891.3376    3104.9199    1876.4109     1228.509    267.75712   -546.39189    26803.111   0.60494922 
  387000       387000    2125.7009    3041.9892    1909.8229    1132.1663    272.52489   -2344.0725    26803.111   0.60494922 
  388000       388000    3144.1448     3019.106    1872.2261    1146.8798    267.15996     319.8777    26803.111   0.60494922 
  389000       389000    3358.9753    3087.3061    1927.3911     1159.915     275.0318    694.99115    26803.111   0.60494922 
  390000       390000    2692.5439    3122.4181    1920.6522    1201.7658    274.07019   -1099.7153    26803.111   0.60494922 
  391000       391000    2796.7398    3044.8275    1877.4526    1167.3749    267.90576   -634.66417    26803.111   0.60494922 
  392000       392000    3088.3888    3104.5939    1913.1261    1191.4677    272.99624   -41.456156    26803.111   0.60494922 
  393000       393000    3253.3262    3096.2599    1922.3559     1173.904     274.3133    401.81109    26803.111   0.60494922 
  394000       394000    3276.2522    3042.6261    1878.8758    1163.7503    268.10885     597.6683    26803.111   0.60494922 
  395000       395000    2878.0866    3037.3028    1846.5921    1190.7107    263.50208   -407.31114    26803.111   0.60494922 
  396000       396000    3446.3419    3077.6949    1944.1064    1133.5884    277.41702    943.08239    26803.111   0.60494922 
  397000       397000    3695.6757    3009.6513    1848.0671    1161.5843    263.71255    1755.0054    26803.111   0.60494922 
  398000       398000    3795.0128    3075.2366    1894.4554    1180.7811      270.332    1841.3503    26803.111   0.60494922 
  399000       399000    3194.4516     3208.129    1958.4488    1249.6803    279.46362   -34.990017    26803.111   0.60494922 
  400000       400000    3194.9089    3087.6568    1875.8301    1211.8267    267.67423    274.37517    26803.111   0.60494922 
  401000       401000    2893.7176    3027.8805    1860.4458    1167.4346    265.47895   -343.21894    26803.111   0.60494922 
  402000       402000      2832.46    3067.3087    1922.2594    1145.0494    274.29952   -600.79609    26803.111   0.60494922 
  403000       403000    3367.1871    3131.6714    1937.4634     1194.208    276.46908    602.50255    26803.111   0.60494922 
  404000       404000    3588.1995    3085.0601    1920.4928    1164.5673    274.04744    1287.1444    26803.111   0.60494922 
  405000       405000    3069.3595    3083.3317    1885.8819    1197.4498    269.10859     -35.7441    26803.111   0.60494922 
  406000       406000     2564.656    3036.6167    1860.4894    1176.1273    265.48518   -1207.3822    26803.111   0.60494922 
  407000       407000    3479.6783     3121.189      1857.05     1264.139    264.99438    917.09663    26803.111   0.60494922 
  408000       408000    2679.8821    3104.3082    1893.5662     1210.742    270.20512   -1085.7778    26803.111   0.60494922 
  409000       409000    2401.6712    3064.5259    1907.7048     1156.821    272.22265   -1695.7321    26803.111   0.60494922 
  410000       410000    2605.7166    3158.0001    1942.7654    1215.2347    277.22566    -1412.866    26803.111   0.60494922 
  411000       411000    2386.3042    3033.7683    1894.9267    1138.8416    270.39925   -1656.3594    26803.111   0.60494922 
  412000       412000    3170.3933    3090.8542    1887.2077    1203.6464    269.29778    203.47902    26803.111   0.60494922 
  413000       413000    3102.5393    3036.3948     1867.412    1168.9829      266.473    169.21241    26803.111   0.60494922 
  414000       414000      2610.14    3126.7541    1968.0099    1158.7443    280.82796   -1321.6158    26803.111   0.60494922 
  415000       415000    3734.5158    3095.4252     1902.797    1192.6282    271.52231    1634.9382    26803.111   0.60494922 
  416000       416000    3147.6768    2985.0788    1851.4371    1133.6416    264.19345    415.96265    26803.111   0.60494922 
  417000       417000    3581.3624    3072.5947    1900.1278    1172.4669    271.14143    1301.5428    26803.111   0.60494922 
  418000       418000    3667.7781     3113.437     1915.314    1198.1231    273.30844    1418.1297    26803.111   0.60494922 
  419000       419000    3287.3765    3090.2836    1904.6614    1185.6223    271.78835    504.20818    26803.111   0.60494922 
  420000       420000    2661.7804    3116.7615    1887.8976    1228.8639    269.39622   -1163.9445    26803.111   0.60494922 
  421000       421000    2804.3207    3105.6314    1914.2907    1191.3407    273.16243   -770.82103    26803.111   0.60494922 
  422000       422000    3220.5476    3119.0816    1902.7019    1216.3798    271.50874    259.57289    26803.111   0.60494922 
  423000       423000    3110.4871    3031.9095     1872.908    1159.0016    267.25726    201.01905    26803.111   0.60494922 
  424000       424000     3312.182    3099.1187    1920.8323    1178.2864    274.09589    545.06393    26803.111   0.60494922 
  425000       425000    3463.3141    3034.6702    1896.1957    1138.4745    270.58034     1096.568    26803.111   0.60494922 
  426000       426000    3359.4642    3027.6135    1921.7981    1105.8154     274.2337    848.94898    26803.111   0.60494922 
  427000       427000    3206.6415    3192.9886    1930.6127    1262.3759    275.49151    34.927139    26803.111   0.60494922 
  428000       428000    3018.2413     3029.271    1869.0043    1160.2668    266.70021   -28.216484    26803.111   0.60494922 
  429000       429000    3775.3814    3138.9247    1939.9456    1198.9791    276.82329    1628.1999    26803.111   0.60494922 
  430000       430000    3183.3986     3092.297    1924.7697    1167.5273    274.65773    233.05846    26803.111   0.60494922 
  431000       431000    3377.6961    3086.6898    1942.8876    1143.8022    277.24311    744.45977    26803.111   0.60494922 
  432000       432000     3047.798    3127.0019    1921.7852    1205.2167    274.23187   -202.62148    26803.111   0.60494922 
  433000       433000     3037.857    3049.5617    1851.5971    1197.9646    264.21627   -29.943396    26803.111   0.60494922 
  434000       434000    3043.4627    3104.2535    1908.5036      1195.75    272.33662   -155.51667    26803.111   0.60494922 
  435000       435000    3150.9446    3181.5217    1915.4354    1266.0863    273.32576   -78.223026    26803.111   0.60494922 
  436000       436000    2960.9682    3061.7147    1887.2513    1174.4634      269.304   -257.73211    26803.111   0.60494922 
  437000       437000    2969.1467    3120.0868    1923.8968      1196.19    274.53318   -386.13883    26803.111   0.60494922 
  438000       438000    2850.8314    3038.3527    1845.2739    1193.0788    263.31397   -479.72181    26803.111   0.60494922 
  439000       439000    2467.7917    3156.4038    1923.3155    1233.0883    274.45023   -1761.6252    26803.111   0.60494922 
  440000       440000    2543.4799    3112.5362    1936.2634    1176.2728    276.29785   -1455.7747    26803.111   0.60494922 
  441000       441000    2926.6934    3095.2992    1936.1318    1159.1674    276.27907   -431.33171    26803.111   0.60494922 
  442000       442000    3607.7015    3081.3824    1933.2177    1148.1646    275.86325    1346.4434    26803.111   0.60494922 
  443000       443000    2850.8943    3068.4033    1895.9062    1172.4971    270.53902   -556.43717    26803.111   0.60494922 
  444000       444000    3367.4497    3152.9378    1906.7786    1246.1592    272.09047    548.76997    26803.111   0.60494922 
  445000       445000    3291.6581    3104.1488    1929.6869    1174.4619    275.35941    479.69126    26803.111   0.60494922 
  446000       446000    3072.8787    3022.5427     1861.967    1160.5758    265.69601    128.77072    26803.111   0.60494922 
  447000       447000    2694.3966    3122.1281    1908.9401     1213.188    272.39891   -1094.2338    26803.111   0.60494922 
  448000       448000    2852.5844     3037.384    1892.2978    1145.0861    270.02412   -472.75915    26803.111   0.60494922 
  449000       449000    3141.2391    3066.3467    1919.6272    1146.7195    273.92393    191.59163    26803.111   0.60494922 
  450000       450000    3455.1642    3099.3981    1889.7299    1209.6682    269.65768    910.13018    26803.111   0.60494922 
  451000       451000    3310.6328    3091.1557    1929.5899    1161.5658    275.34557    561.47192    26803.111   0.60494922 
  452000       452000    2558.3462    3041.9382    1861.7533    1180.1849    265.66552   -1237.1376    26803.111   0.60494922 
  453000       453000    3254.6312    3146.0327    1963.0291    1183.0036    280.11722    277.81934    26803.111   0.60494922 
  454000       454000    3691.7058    3180.4574    1972.5163    1207.9411    281.47101    1307.8888    26803.111   0.60494922 
  455000       455000    2494.1417    3032.8391    1913.4588    1119.3802    273.04372   -1378.1095    26803.111   0.60494922 
  456000       456000    3078.0574    3088.1361    1882.6438    1205.4923    268.64652   -25.783577    26803.111   0.60494922 
  457000       457000    2813.5791    3176.6748    1914.3324    1262.3424    273.16838   -928.88094    26803.111   0.60494922 
  458000       458000    3299.0091    3080.0064    1911.4383    1168.5681    272.75539    560.25831    26803.111   0.60494922 
  459000       459000    3072.3159    3046.5558    1910.0855    1136.4703    272.56236    65.900236    26803.111   0.60494922 
  460000       460000    2789.1987    3103.4075    1915.1798    1188.2277     273.2893   -803.81712    26803.111   0.60494922 
  461000       461000    3036.6222    3020.6347    1871.6646    1148.9701    267.07983    40.899529    26803.111   0.60494922 
  462000       462000    3308.7495    3108.4259    1907.4453    1200.9806    272.18561    512.47301    26803.111   0.60494922 
  463000       463000    4210.9962    3022.2464    1875.6757    1146.5707     267.6522    3041.0906    26803.111   0.60494922 
  464000       464000    2823.6801    3101.1192    1941.8901    1159.2291    277.10076   -709.75196    26803.111   0.60494922 
  465000       465000    3545.2374    3076.1209    1867.1859    1208.9351    266.44073    1200.1059    26803.111   0.60494922 
  466000       466000    3502.0154    3070.5959    1896.3778    1174.2181    270.60632    1103.6685    26803.111   0.60494922 
  467000       467000    2972.1804    3065.7338    1874.4454    1191.2884    267.47665    -239.3308    26803.111   0.60494922 
  468000       468000    2916.9641    3020.0902    1902.2529    1117.8373    271.44467   -263.81996    26803.111   0.60494922 
  469000       469000    3371.9358    3029.6239    1894.1847    1135.4392    270.29337    875.71136    26803.111   0.60494922 
  470000       470000    3114.3502    3035.8492    1886.3288    1149.5204    269.17236    200.82316    26803.111   0.60494922 
  471000       471000    3807.9561    3076.1479    1910.2518    1165.8961    272.58609    1872.1307    26803.111   0.60494922 
  472000       472000    3298.7271    3070.2033    1899.6654    1170.5379    271.07545    584.61538    26803.111   0.60494922 
  473000       473000    2674.8737     3050.847    1887.5831    1163.2639    269.35135   -961.82469    26803.111   0.60494922 
  474000       474000    2753.6796    3074.0267    1895.4586    1178.5682    270.47515   -819.52034    26803.111   0.60494922 
  475000       475000     3128.963    3112.5896    1893.6646     1218.925    270.21916    41.886669    26803.111   0.60494922 
  476000       476000    3384.0808    3024.4933    1869.0171    1155.4762    266.70205    919.90606    26803.111   0.60494922 
  477000       477000    2894.2826    3081.9864    1925.8356    1156.1507    274.80985    -480.1886    26803.111   0.60494922 
  478000       478000    2880.7401    3056.1672    1915.0856    1141.0816    273.27586   -448.78222    26803.111   0.60494922 
  479000       479000    3461.7658    3110.1309    1944.9798    1165.1511    277.54165    899.56145    26803.111   0.60494922 
  480000       480000    3288.0046    3146.8449    1940.0825    1206.7624    276.84283    361.11831    26803.111   0.60494922 
  481000       481000    3437.5347    3077.9653     1905.976    1171.9893    271.97595    919.85977    26803.111   0.60494922 
  482000       482000    3197.3128    3086.0622    1893.3298    1192.7324    270.17137    284.60427    26803.111   0.60494922 
  483000       483000    2878.7304    3056.0561    1891.7227    1164.3334    269.94204   -453.63924    26803.111   0.60494922 
  484000       484000    3130.8092    3154.7229     1929.508    1225.2149    275.33388   -61.176615    26803.111   0.60494922 
  485000       485000    3185.2828    3083.5511    1905.8172    1177.7339    271.95328    260.25269    26803.111   0.60494922 
  486000       486000    3349.7868    3081.5222    1897.6513     1183.871    270.78804    686.28137    26803.111   0.60494922 
  487000       487000    2937.9537    3133.8819    1892.7748    1241.1071    270.09218   -501.22861    26803.111   0.60494922 
  488000       488000    3317.9022     3171.137    1938.1388    1232.9982    276.56546    375.45876    26803.111   0.60494922 
  489000       489000    1947.3172    3078.6157     1885.263    1193.3528    269.02027   -2894.1174    26803.111   0.60494922 
  490000       490000     3031.194    3040.9225    1871.1644    1169.7581    267.00845   -24.887643    26803.111   0.60494922 
  491000       491000    3204.8515    3126.9082    1902.5101    1224.3981    271.48138    199.39651    26803.111   0.60494922 
  492000       492000    3261.0567    3145.0228     1944.629    1200.3937     277.4916    296.84095    26803.111   0.60494922 
  493000       493000    2530.5522    3086.0993    1905.8544    1180.2449     271.9586    -1421.215    26803.111   0.60494922 
  494000       494000    2281.3373    3078.8719    1901.9754    1176.8965    271.40507   -2040.2738    26803.111   0.60494922 
  495000       495000     2348.002    2995.1386    1838.6142    1156.5244    262.36366   -1655.5217    26803.111   0.60494922 
  496000       496000    2734.5052    3091.6647    1924.4841    1167.1806    274.61698   -913.69459    26803.111   0.60494922 
  497000       497000     2743.947    3127.0626      1927.73    1199.3326    275.08016   -980.09617    26803.111   0.60494922 
  498000       498000    3403.5415    3078.7931    1905.2979    1173.4952    271.87918    830.77997    26803.111   0.60494922 
  499000       499000     3270.061    3080.4565    1908.7043    1171.7523    272.36526    485.05107    26803.111   0.60494922 
  500000       500000     2924.018    3162.5314     1988.495    1174.0363    283.75112    -610.1712    26803.111   0.60494922 
  501000       501000    2872.3279    3047.0193    1888.6448    1158.3745    269.50285   -446.90011    26803.111   0.60494922 
  502000       502000    3198.6191    3159.0069    1945.6614    1213.3455    277.63891    101.33696    26803.111   0.60494922 
  503000       503000    3273.0417    3096.9013    1948.6701    1148.2312    278.06824    450.60694    26803.111   0.60494922 
  504000       504000    3081.2471    3059.0456     1895.334    1163.7116    270.45737    56.796455    26803.111   0.60494922 
  505000       505000    2579.2197    3144.3643    1942.7484    1201.6159    277.22324   -1445.7677    26803.111   0.60494922 
  506000       506000    3224.1119    3174.7819    1918.2633    1256.5186     273.7293    126.19729    26803.111   0.60494922 
  507000       507000    3299.1091     3064.397    1930.6447    1133.7523    275.49608    600.44652    26803.111   0.60494922 
  508000       508000    3648.0345    3146.1537    1927.4885    1218.6652    275.04571    1283.9245    26803.111   0.60494922 
  509000       509000     2767.112    3112.9227    1916.8255    1196.0972    273.52414   -884.66203    26803.111   0.60494922 
  510000       510000    2830.6531    3041.9054    1883.1704     1158.735    268.72167   -540.43114    26803.111   0.60494922 
  511000       511000    2957.6242    3023.6749    1848.9088    1174.7661    263.83266   -168.97275    26803.111   0.60494922 
  512000       512000    3449.2891    3154.6332     1922.973    1231.6602    274.40135    753.79656    26803.111   0.60494922 
  513000       513000    2881.9562    3138.3546    1965.9849    1172.3697      280.539   -655.92503    26803.111   0.60494922 
  514000       514000    2695.0849    3017.6677    1900.0518    1117.6159    271.13058   -825.23972    26803.111   0.60494922 
  515000       515000    3450.3274    3140.2789    1891.3349     1248.944    269.88671    793.17416    26803.111   0.60494922 
  516000       516000    2905.7754    3022.9229     1897.381    1125.5419    270.74947   -299.68985    26803.111   0.60494922 
  517000       517000    4090.7381    3061.7873    1867.2656    1194.5217    266.45211    2632.2887    26803.111   0.60494922 
  518000       518000    2610.0984    3151.2712    1924.9807    1226.2905    274.68785   -1384.4422    26803.111   0.60494922 
  519000       519000    3386.5939    3100.5521    1926.2314    1174.3206    274.86633    731.75955    26803.111   0.60494922 
  520000       520000    2611.5334    3048.1231    1831.3495    1216.7736    261.32701   -1116.8952    26803.111   0.60494922 
  521000       521000    2896.8307    3058.7549    1904.0642    1154.6907    271.70315   -414.23878    26803.111   0.60494922 
  522000       522000    3362.3536    3097.7964    1938.7632    1159.0332    276.65457    676.79714    26803.111   0.60494922 
  523000       523000     2755.765    3042.3078    1871.4773    1170.8305     267.0531   -733.04112    26803.111   0.60494922 
  524000       524000    3163.1911    3153.9218     1931.262    1222.6597    275.58417     23.71305    26803.111   0.60494922 
  525000       525000    3306.8846     3084.499    1907.4504    1177.0486    272.18634    568.91261    26803.111   0.60494922 
  526000       526000    3287.5492     3112.204    1921.5539    1190.6501    274.19886    448.57272    26803.111   0.60494922 
  527000       527000    2655.4308    3041.1488    1843.9132    1197.2356     263.1198    -986.7538    26803.111   0.60494922 
  528000       528000    3773.7587    3062.7753    1879.9956    1182.7797    268.26864    1818.8563    26803.111   0.60494922 
  529000       529000    3177.6478    3010.8282    1845.7379    1165.0903    263.38018    426.76222    26803.111   0.60494922 
  530000       530000    2918.8094    3115.1127    1923.3025    1191.8102    274.44838    -502.1881    26803.111   0.60494922 
  531000       531000    2526.1786    3093.2635     1911.358    1181.9055    272.74393   -1450.7313    26803.111   0.60494922 
  532000       532000    3073.1169    3046.0562    1927.8608    1118.1954    275.09883    69.227205    26803.111   0.60494922 
  533000       533000    3245.0853     3178.409    1952.5518    1225.8573    278.62214    170.57302    26803.111   0.60494922 
  534000       534000    3175.0071    3149.9991    1914.3573    1235.6417    273.17193    63.976274    26803.111   0.60494922 
  535000       535000    2653.2456    2997.2413     1852.631    1144.6103     264.3638   -880.01876    26803.111   0.60494922 
  536000       536000    2427.6503    3090.6927    1895.0903    1195.6024    270.42259   -1696.2122    26803.111   0.60494922 
  537000       537000    2857.1951     3055.297    1865.0357    1190.2613    266.13391    -506.7893    26803.111   0.60494922 
  538000       538000    3063.8387    3119.7287    1913.5517     1206.177    273.05698   -142.97931    26803.111   0.60494922 
  539000       539000    3330.8742    3101.0146    1936.0205    1164.9941    276.26319    588.03284    26803.111   0.60494922 
  540000       540000    2915.7786    3033.5635    1832.5404     1201.023    261.49696   -301.32032    26803.111   0.60494922 
  541000       541000    3290.6747    3075.8199    1885.4713    1190.3486       269.05    549.64715    26803.111   0.60494922 
  542000       542000    2859.6671    3116.6759    1904.9318     1211.744    271.82694   -657.48639    26803.111   0.60494922 
  543000       543000    2896.2511    3136.7374    1903.1144    1233.6229    271.56761   -615.21813    26803.111   0.60494922 
  544000       544000    2868.8116    3026.8667    1836.4615    1190.4051    262.05648   -404.34055    26803.111   0.60494922 
  545000       545000    2821.5178    3051.8821    1908.7011     1143.181    272.36481   -589.32389    26803.111   0.60494922 
  546000       546000    3132.3741    3038.4274    1856.0324     1182.395    264.84917    240.33677    26803.111   0.60494922 
  547000       547000    2437.7359    3129.1981    1941.9926    1187.2055    277.11539   -1768.9166    26803.111   0.60494922 
  548000       548000    2538.6016    3016.8312    1877.7881    1139.0431    267.95364   -1223.4194    26803.111   0.60494922 
  549000       549000    3066.5361    3137.1655    1922.3928    1214.7727    274.31857    -180.6859    26803.111   0.60494922 
  550000       550000    2951.3277    3090.9327     1919.391    1171.5417    273.89022   -357.14117    26803.111   0.60494922 
  551000       551000    3377.1448    3165.2432    1964.5798    1200.6635    280.33849    542.09209    26803.111   0.60494922 
  552000       552000    3244.9334    3112.8892    1933.1407    1179.7486    275.85225    337.79884    26803.111   0.60494922 
  553000       553000    2718.3587    3056.8874    1878.8544    1178.0331    268.10579   -866.03314    26803.111   0.60494922 
  554000       554000    3012.6376     3110.562      1853.57     1256.992     264.4978   -250.51275    26803.111   0.60494922 
  555000       555000    2940.0202    3083.7114    1889.2175    1194.4939    269.58457   -367.59477    26803.111   0.60494922 
  556000       556000    2617.7535    3134.2966    1921.4208    1212.8758    274.17986   -1321.4339    26803.111   0.60494922 
  557000       557000    3557.4925    3128.3233    1921.3972    1206.9262    274.17649    1097.9116    26803.111   0.60494922 
  558000       558000    2422.9035    3060.0135    1864.9823    1195.0311     266.1263   -1629.8713    26803.111   0.60494922 
  559000       559000     3125.906    3089.2237    1897.3779    1191.8458    270.74902    93.841844    26803.111   0.60494922 
  560000       560000    3861.8946     3145.813    1936.7291    1209.0838     276.3643    1831.8987    26803.111   0.60494922 
  561000       561000    3306.3063    3129.6796    1962.0523    1167.6273    279.97784    451.85097    26803.111   0.60494922 
  562000       562000    3315.5211    3054.3013    1850.4911    1203.8102    264.05845    668.25932    26803.111   0.60494922 
  563000       563000    2927.4795    3029.2794    1896.8828    1132.3967    270.67838   -260.42736    26803.111   0.60494922 
  564000       564000    3146.4634    3076.2056    1890.6107    1185.5949    269.78337    179.73549    26803.111   0.60494922 
  565000       565000    3127.3587    3092.2261    1902.8507    1189.3755    271.52997    89.876995    26803.111   0.60494922 
  566000       566000     2960.269    3081.4734    1901.7189    1179.7546    271.36847   -310.06834    26803.111   0.60494922 
  567000       567000    3277.1819    3080.9065    1870.1141    1210.7923    266.85859    502.11688    26803.111   0.60494922 
  568000       568000    3277.1223    3121.1545    1895.1288    1226.0257    270.42808    399.00091    26803.111   0.60494922 
  569000       569000    3480.7221    3077.4695      1949.23    1128.2395    278.14813    1031.6113    26803.111   0.60494922 
  570000       570000    2787.9383    3101.8028    1935.1631    1166.6397    276.14084   -802.93641    26803.111   0.60494922 
  571000       571000    2746.6022    3151.4757    1929.7157    1221.7601    275.36351    -1035.758    26803.111   0.60494922 
  572000       572000     2786.516    3070.3628    1907.8637    1162.4991    272.24531   -726.14419    26803.111   0.60494922 
  573000       573000    2863.0933    3088.5057    1916.8474    1171.6584    273.52725   -576.65604    26803.111   0.60494922 
  574000       574000    2657.3486      3042.36    1883.6882    1158.6719    268.79556   -984.94642    26803.111   0.60494922 
  575000       575000    3413.5329    3128.3988    1939.5211    1188.8777    276.76272    729.43748    26803.111   0.60494922 
  576000       576000     3372.053    3121.2985    1946.2501    1175.0485    277.72291    641.48669    26803.111   0.60494922 
  577000       577000    2454.0497    3021.4646    1855.3408    1166.1238    264.75049   -1451.5756    26803.111   0.60494922 
  578000       578000    3105.3694     3125.154    1905.4827    1219.6713    271.90556   -50.613608    26803.111   0.60494922 
  579000       579000    2531.1263    3056.0005    1907.2768    1148.7237    272.16157   -1342.7469    26803.111   0.60494922 
  580000       580000    3326.0741    3151.4771      1913.45    1238.0271    273.04246    446.65854    26803.111   0.60494922 
  581000       581000    3114.4742    3076.9191    1893.0696    1183.8494    270.13425     96.07443    26803.111   0.60494922 
  582000       582000    2767.8981    3070.9782    1860.0285    1210.9497     265.4194   -775.34751    26803.111   0.60494922 
  583000       583000    2829.3696    3021.9157    1849.8601    1172.0555    263.96841   -492.57644    26803.111   0.60494922 
  584000       584000    4076.7672    3075.6975    1922.6902    1153.0073    274.36101    2560.9625    26803.111   0.60494922 
  585000       585000    3036.0926    3031.9031    1918.4044    1113.4987    273.74943    10.717617    26803.111   0.60494922 
  586000       586000     2816.748    3090.2372     1890.615    1199.6222    269.78398    -699.6473    26803.111   0.60494922 
  587000       587000    2792.8649    3079.3523    1906.5914    1172.7609    272.06376   -732.89961    26803.111   0.60494922 
  588000       588000    2979.5994    3066.7611    1939.4011      1127.36    276.74559   -222.97935    26803.111   0.60494922 
  589000       589000    2603.2672    3092.6583    1889.1304    1203.5279    269.57214   -1251.9731    26803.111   0.60494922 
  590000       590000    3654.1997    3146.1734    1945.9643    1200.2092    277.68213    1299.6462    26803.111   0.60494922 
  591000       591000    2856.0655    3107.8709    1890.2682    1217.6027    269.73451   -644.17523    26803.111   0.60494922 
[...]
  857000       857000    2639.4565    3109.7445    1956.0371    1153.7074    279.11948   -1203.1029    26803.111   0.60494922 
  858000       858000    2854.7184    3105.6523    1919.0247    1186.6276    273.83795   -641.94573    26803.111   0.60494922 
  859000       859000    2805.4874    3037.2336    1897.1979    1140.0356    270.72335   -592.85896    26803.111   0.60494922 
  860000       860000    3236.8654    3129.0375    1922.5657    1206.4718    274.34324    275.84823    26803.111   0.60494922 
  861000       861000     2924.185    3050.8912    1938.1311    1112.7601    276.56437   -324.14296    26803.111   0.60494922 
  862000       862000    3394.4617    3101.1668    1927.2109    1173.9559     275.0061    750.31447    26803.111   0.60494922 
  863000       863000    2826.1054    3079.1438    1860.1033    1219.0405    265.43008   -647.32946    26803.111   0.60494922 
  864000       864000    3204.7466    3118.8686    1936.6423    1182.2264    276.35192    219.69532    26803.111   0.60494922 
  865000       865000    3204.7264     3042.407    1853.3135    1189.0935    264.46119    415.24973    26803.111   0.60494922 
  866000       866000    3063.8241    3117.7162    1906.3736    1211.3426    272.03268   -137.86812    26803.111   0.60494922 
  867000       867000    3637.2282    3167.2075    1982.1846    1185.0229    282.85063    1202.4193    26803.111   0.60494922 
  868000       868000    3167.4029    3071.2771    1943.8903    1127.3868    277.38617    245.91153    26803.111   0.60494922 
  869000       869000    3122.4739    3041.6861    1893.2527    1148.4334    270.16038    206.67338    26803.111   0.60494922 
  870000       870000    2960.4319     3125.799    1893.9305    1231.8685     270.2571   -423.04626    26803.111   0.60494922 
  871000       871000    2635.0228    3012.9414    1878.2598    1134.6816    268.02095   -966.80115    26803.111   0.60494922 
  872000       872000    3177.6053    3118.6463    1913.6534    1204.9929    273.07149    150.83033    26803.111   0.60494922 
  873000       873000    2535.8987    3035.7599    1877.5199      1158.24    267.91536    -1278.758    26803.111   0.60494922 
  874000       874000     3224.683    3067.4225    1904.8861    1162.5363    271.82043    402.30788    26803.111   0.60494922 
  875000       875000    3036.0677    3141.6885    1947.6674    1194.0211    277.92516   -270.20174    26803.111   0.60494922 
  876000       876000    3219.1162    3075.1335    1896.5879    1178.5456     270.6363    368.34019    26803.111   0.60494922 
  877000       877000    3032.6627    3061.1724    1858.5799    1202.5924     265.2127   -72.934158    26803.111   0.60494922 
  878000       878000    2575.6198    3074.6566     1899.353    1175.3036    271.03087   -1276.6491    26803.111   0.60494922 
  879000       879000    3373.7354    3134.0769     1957.441    1176.6359    279.31982    613.10074    26803.111   0.60494922 
  880000       880000    2924.4852    3072.0219    1905.5404    1166.4814    271.91379   -377.43202    26803.111   0.60494922 
  881000       881000    2954.5605    3061.9271    1880.8032     1181.124    268.38387   -274.66795    26803.111   0.60494922 
  882000       882000    3009.7875    3173.1097    1959.1223    1213.9874    279.55973   -417.81512    26803.111   0.60494922 
  883000       883000    2967.4945    3077.1188    1875.5649    1201.5539    267.63639   -280.44359    26803.111   0.60494922 
  884000       884000    3384.5845    3093.2058    1869.1022    1224.1036    266.71419    745.41254    26803.111   0.60494922 
  885000       885000     3066.574    3121.3694    1930.0593    1191.3101    275.41254   -140.17889    26803.111   0.60494922 
  886000       886000    3059.2331    3058.3187    1892.8058    1165.5128    270.09661    2.3393594    26803.111   0.60494922 
  887000       887000    2456.1826    3075.3956    1890.9332    1184.4624    269.82939   -1584.0868    26803.111   0.60494922 
  888000       888000    3175.1404    3082.6823     1880.739    1201.9432    268.37472    236.52884    26803.111   0.60494922 
  889000       889000    2817.3455    3045.3779     1861.978       1183.4    265.69758   -583.35859    26803.111   0.60494922 
  890000       890000    3094.2259    3121.7893    1942.9188    1178.8705    277.24755   -70.513447    26803.111   0.60494922 
  891000       891000    3071.5699    3123.0404     1945.621    1177.4194    277.63314   -131.67306    26803.111   0.60494922 
  892000       892000    3252.2374    3082.2638    1876.3398     1205.924    267.74697    434.83093    26803.111   0.60494922 
  893000       893000    2537.8495    3093.2446     1918.389    1174.8556    273.74723   -1420.8262    26803.111   0.60494922 
  894000       894000     3093.445    3159.8997    1895.3848    1264.5149    270.46462   -170.00603    26803.111   0.60494922 
  895000       895000    3043.9428    3086.1059    1951.3803    1134.7256    278.45498   -107.86264    26803.111   0.60494922 
  896000       896000    2451.5484    3066.3271    1870.3515    1195.9756    266.89246   -1572.7431    26803.111   0.60494922 
  897000       897000    2785.6233    3076.0844    1888.1941    1187.8904    269.43853   -743.06526    26803.111   0.60494922 
  898000       898000    3075.9372     3095.801    1878.4483    1217.3527    268.04784   -50.816056    26803.111   0.60494922 
  899000       899000    3088.1743    3024.0903    1866.6185    1157.4718    266.35978    163.94134    26803.111   0.60494922 
  900000       900000    3125.0216    3129.8856    1892.4713    1237.4143    270.04888    -12.44312    26803.111   0.60494922 
  901000       901000    2513.7635    3076.4957    1927.1463    1149.3494    274.99687   -1439.5961    26803.111   0.60494922 
  902000       902000    3033.5069    3172.3038    1925.2888     1247.015    274.73182   -355.07386    26803.111   0.60494922 
  903000       903000    3147.5332    3089.0635    1900.8246    1188.2389    271.24086    149.57873    26803.111   0.60494922 
  904000       904000    2937.1813    2978.7227    1846.3661    1132.3567    263.46982   -106.27241    26803.111   0.60494922 
  905000       905000    2794.0105    3067.1761    1882.1774    1184.9986    268.57998   -698.81936    26803.111   0.60494922 
  906000       906000    3778.3111    3249.5237    2024.7317     1224.792    288.92195    1352.7578    26803.111   0.60494922 
  907000       907000    3145.0951    3064.4576     1877.686    1186.7716    267.93906    206.28908    26803.111   0.60494922 
  908000       908000    3384.8973    3176.6699    1912.6088    1264.0611    272.92243    532.69277    26803.111   0.60494922 
  909000       909000    3038.9655    3107.7985    1948.9725    1158.8259     278.1114   -176.09013    26803.111   0.60494922 
  910000       910000    2642.6046    3005.6961    1878.0725    1127.6236    267.99422    -928.8702    26803.111   0.60494922 
  911000       911000    2842.5855    3113.3691    1899.1615    1214.2076    271.00354   -692.72572    26803.111   0.60494922 
  912000       912000    3250.4974    3177.0288    1994.1418     1182.887    284.55689    187.94935    26803.111   0.60494922 
  913000       913000    3356.0383    3074.1457    1888.0068    1186.1389    269.41181    721.14514    26803.111   0.60494922 
  914000       914000    2534.5663    3014.7238    1836.5241    1178.1997     262.0654   -1228.3515    26803.111   0.60494922 
  915000       915000    2799.8469    3047.9586    1880.2488    1167.7099    268.30476   -634.72584    26803.111   0.60494922 
  916000       916000    3011.0294    3049.4098    1896.6765    1152.7334    270.64894   -98.185863    26803.111   0.60494922 
  917000       917000     3059.708     3119.512    1879.4531     1240.059    268.19122   -152.99217    26803.111   0.60494922 
  918000       918000    3661.2911    3085.6663    1902.4701    1183.1962    271.47567    1472.5784    26803.111   0.60494922 
  919000       919000    3211.3982    3170.9154    1949.3894     1221.526    278.17088    103.56398    26803.111   0.60494922 
  920000       920000    3100.8328    3077.0754    1896.6424     1180.433    270.64408    60.776856    26803.111   0.60494922 
  921000       921000    3113.2616    3096.5799    1882.0871    1214.4928    268.56708    42.675661    26803.111   0.60494922 
  922000       922000     3153.996    3198.7984    1933.7855    1265.0128    275.94427   -114.61449    26803.111   0.60494922 
  923000       923000    3036.7416    3068.6592    1905.2498    1163.4094    271.87232   -81.652335    26803.111   0.60494922 
  924000       924000    2369.0323    3113.0155    1913.7511    1199.2644    273.08543   -1903.2774    26803.111   0.60494922 
  925000       925000    3181.2041    3108.3838    1902.3148     1206.069    271.45351    186.29057    26803.111   0.60494922 
  926000       926000    3166.2367    3126.3623    1940.4234    1185.9389    276.89147    102.00757    26803.111   0.60494922 
  927000       927000    3051.0013    3082.5296    1918.6163    1163.9133    273.77968    -80.65645    26803.111   0.60494922 
  928000       928000    2878.2505    3104.2535    1893.0835      1211.17    270.13623    -578.1666    26803.111   0.60494922 
  929000       929000    3387.2787      3160.75    1950.2062    1210.5438    278.28744    579.51162    26803.111   0.60494922 
  930000       930000    3045.4069    3061.4053    1901.9124    1159.4929    271.39608   -40.927352    26803.111   0.60494922 
  931000       931000    3430.3427    3188.6947    1974.8041    1213.8907    281.79747    618.19013    26803.111   0.60494922 
  932000       932000    3190.4621    3098.3124    1927.6778    1170.6347    275.07271    235.73968    26803.111   0.60494922 
  933000       933000    3313.6645    3073.1336    1915.7467    1157.3868     273.3702    615.33251    26803.111   0.60494922 
  934000       934000    2448.6699    3158.4773    1948.5953     1209.882    278.05757   -1815.8478    26803.111   0.60494922 
  935000       935000    2647.6953    3091.1605    1910.9867    1180.1738    272.69095   -1134.4842    26803.111   0.60494922 
  936000       936000    3203.6194    3090.7844    1881.4366    1209.3478    268.47426    288.65753    26803.111   0.60494922 
  937000       937000    3017.4384    3057.9436    1865.6322    1192.3115    266.21903   -103.62152    26803.111   0.60494922 
  938000       938000    3046.7447    3019.2639    1881.7245    1137.5394    268.51534    70.302058    26803.111   0.60494922 
  939000       939000    3201.4445    3120.3857    1945.2185    1175.1672     277.5757    207.36665    26803.111   0.60494922 
  940000       940000    2611.8948    3002.9665    1850.5341    1152.4325    264.06458     -1000.45    26803.111   0.60494922 
  941000       941000    3775.1026     3115.184    1952.1165    1163.0675    278.56003    1688.2208    26803.111   0.60494922 
  942000       942000    3015.7711    3151.0196    1923.7479    1227.2716    274.51194   -345.99615    26803.111   0.60494922 
  943000       943000    3045.5115    3104.6806    1941.5841    1163.0964     277.0571   -151.36789    26803.111   0.60494922 
  944000       944000    3704.9261    3009.1241    1902.5491     1106.575    271.48694    1780.0188    26803.111   0.60494922 
  945000       945000    2955.8974    3106.9018    1896.9565    1209.9453     270.6889   -386.30349    26803.111   0.60494922 
  946000       946000    2767.4332    3004.1445    1865.1388    1139.0057    266.14863   -605.56102    26803.111   0.60494922 
  947000       947000    3774.8965    3015.3947    1877.8562    1137.5385    267.96335    1942.9773    26803.111   0.60494922 
  948000       948000    3017.6468    3054.1887    1890.8658    1163.3229    269.81978    -93.48248    26803.111   0.60494922 
  949000       949000    2900.4031      3086.56    1935.5255    1151.0345    276.19255   -476.23149    26803.111   0.60494922 
  950000       950000     3103.783    3022.2379    1865.6689     1156.569    266.22427    208.61057    26803.111   0.60494922 
  951000       951000    3160.4685    3121.1638    1896.9608    1224.2029    270.68951    100.55047    26803.111   0.60494922 
  952000       952000    3012.0787    3039.0688    1882.5531    1156.5157    268.63359   -69.046795    26803.111   0.60494922 
  953000       953000     3570.437    3104.1415    1895.3823    1208.7592    270.46427    1192.8893    26803.111   0.60494922 
  954000       954000    3198.0241     3109.578    1922.7594    1186.8186    274.37088    226.26508    26803.111   0.60494922 
  955000       955000    2796.6085    3127.9832    1926.2004    1201.7827     274.8619    -847.7313    26803.111   0.60494922 
  956000       956000    2941.2371    3143.8627     1931.175    1212.6877    275.57176   -518.36229    26803.111   0.60494922 
  957000       957000    2899.7674     3073.515    1909.4564    1164.0586    272.47258   -444.48577    26803.111   0.60494922 
  958000       958000    3371.5474    3079.5301    1889.0239    1190.5062    269.55694    747.04631    26803.111   0.60494922 
  959000       959000    2321.0948    3165.1096    1984.4452    1180.6645    283.17321   -2159.1808    26803.111   0.60494922 
  960000       960000    2970.9997    3050.1719    1886.1765    1163.9954    269.15063    -202.5404    26803.111   0.60494922 
  961000       961000    2787.5885     3134.006      1910.23     1223.776    272.58298   -886.21408    26803.111   0.60494922 
  962000       962000    2813.0519    3000.6816    1876.0124    1124.6692    267.70025    -479.9992    26803.111   0.60494922 
  963000       963000    3764.7275    3113.6063    1933.7178    1179.8885    275.93461    1665.7153    26803.111   0.60494922 
  964000       964000    2968.4101    3178.6284    1959.6822    1218.9462    279.63963   -537.78586    26803.111   0.60494922 
  965000       965000    3293.3998    3076.8828    1884.8615    1192.0212    268.96299    553.89956    26803.111   0.60494922 
  966000       966000    3488.1973    3037.8802    1898.5606    1139.3196    270.91779    1152.0128    26803.111   0.60494922 
  967000       967000    3739.5739    3127.9223    1931.3982    1196.5241     275.6036     1564.743    26803.111   0.60494922 
  968000       968000    3163.4943    3064.0129    1914.7497    1149.2632    273.22792    254.49577    26803.111   0.60494922 
  969000       969000    3364.4457    3157.8003    1924.9462    1232.8541    274.68293    528.64552    26803.111   0.60494922 
  970000       970000    3053.7886    3075.0344    1869.5615    1205.4729    266.77973   -54.351483    26803.111   0.60494922 
  971000       971000    2826.6839    3075.1293    1904.8439    1170.2854    271.81439   -635.57939    26803.111   0.60494922 
  972000       972000    3161.3346    3180.4171    1941.8986    1238.5185    277.10198   -48.817464    26803.111   0.60494922 
  973000       973000    2688.7797    3037.0272    1874.8997    1162.1275    267.54147   -890.89599    26803.111   0.60494922 
  974000       974000    2841.6982    3092.7503    1923.4211    1169.3292     274.4653   -642.24809    26803.111   0.60494922 
  975000       975000     3243.205    3103.3628     1874.581    1228.7818    267.49599    357.74811    26803.111   0.60494922 
  976000       976000    3168.0531    3016.6311    1868.1189    1148.5122    266.57388    387.37169    26803.111   0.60494922 
  977000       977000    3092.6557    3123.4398    1948.7636    1174.6763    278.08158   -78.752709    26803.111   0.60494922 
  978000       978000     3526.684     3155.119    1938.9085    1216.2105    276.67529    950.54736    26803.111   0.60494922 
  979000       979000    3275.7269    3019.1931    1858.7251     1160.468    265.23341    656.27164    26803.111   0.60494922 
  980000       980000      2890.22    3100.1424    1892.7497    1207.3927     270.0886   -537.02873    26803.111   0.60494922 
  981000       981000     3139.233    3047.9137    1876.3474    1171.5663    267.74805    233.61534    26803.111   0.60494922 
  982000       982000    3592.8781    3164.2182    1920.7373    1243.4809    274.08233     1096.609    26803.111   0.60494922 
  983000       983000    3305.8308    3097.7638    1903.5203    1194.2435    271.62552    532.28243    26803.111   0.60494922 
  984000       984000     3050.683    3033.6755    1861.7356    1171.9399    265.66299     43.50897    26803.111   0.60494922 
  985000       985000    3389.4143    3108.9553    1911.6959    1197.2594    272.79215    717.47748    26803.111   0.60494922 
  986000       986000    3050.0061    3090.8467     1894.388    1196.4587    270.32238   -104.47956    26803.111   0.60494922 
  987000       987000     2697.363    3115.6763    1928.9754    1186.7009    275.25788   -1070.1401    26803.111   0.60494922 
  988000       988000    2779.6934    3044.9616    1892.3642    1152.5974    270.03359   -678.61617    26803.111   0.60494922 
  989000       989000    2805.1817    3134.3023    1934.2209    1200.0815    276.00639   -841.96507    26803.111   0.60494922 
  990000       990000    3091.1087     3133.056    1915.9871    1217.0688     273.4045   -107.31049    26803.111   0.60494922 
  991000       991000    2925.7184     3041.064    1854.8489    1186.2151    264.68029   -295.08019    26803.111   0.60494922 
  992000       992000    3375.4531    3176.7232    1949.2972     1227.426    278.15773    508.39604    26803.111   0.60494922 
  993000       993000    3311.6421    3052.1521    1883.7728    1168.3793    268.80763    663.83408    26803.111   0.60494922 
  994000       994000    3105.0288    3130.8473    1940.6793     1190.168    276.92799   -66.049655    26803.111   0.60494922 
  995000       995000    3162.6861    3112.4232    1949.7773    1162.6459    278.22623    128.58396    26803.111   0.60494922 
  996000       996000    2748.8905    3082.9758    1900.6533    1182.3226    271.21641   -854.66579    26803.111   0.60494922 
  997000       997000     2550.186    3144.5777    1917.8063    1226.7714    273.66409   -1520.5883    26803.111   0.60494922 
  998000       998000    3265.8585     3095.372    1872.8261    1222.5459    267.24558     436.1431    26803.111   0.60494922 
  999000       999000    3306.5345    3079.7853    1910.8521    1168.9332    272.67174    580.07567    26803.111   0.60494922 
 1000000      1000000     3111.603     3078.496    1904.8997    1173.5963    271.82236    84.695103    26803.111   0.60494922 
 1000001      1000001    2999.8485    3079.6879     1898.488    1181.1998    270.90744    -204.2472    26803.111   0.60494922 
Loop time of 1518.71 on 24 procs for 1000000 steps with 2352 atoms

Performance: 56.890 ns/day, 0.422 hours/ns, 658.453 timesteps/s
93.3% CPU use with 24 MPI tasks x 1 OpenMP threads

MPI task timing breakdown:
Section |  min time  |  avg time  |  max time  |%varavg| %total
---------------------------------------------------------------
Pair    | 667.38     | 695.6      | 718.65     |  52.1 | 45.80
Bond    | 37.394     | 37.816     | 38.523     |   4.6 |  2.49
Kspace  | 311.91     | 332.72     | 355.26     |  75.8 | 21.91
Neigh   | 48.355     | 48.962     | 50.001     |   6.9 |  3.22
Comm    | 319.35     | 333.8      | 344.77     |  33.1 | 21.98
Output  | 0.043197   | 0.085533   | 1.0518     |  68.9 |  0.01
Modify  | 10.042     | 14.104     | 16.868     |  60.4 |  0.93
Other   |            | 55.62      |            |       |  3.66

Nlocal:    98 ave 113 max 80 min
Histogram: 2 0 1 2 4 5 5 1 3 1
Nghost:    4973.21 ave 5057 max 4895 min
Histogram: 3 3 1 2 2 4 3 1 2 3
Neighs:    49351.8 ave 59866 max 39077 min
Histogram: 2 1 0 4 4 6 4 2 0 1

Total # of neighbors = 1184443
Ave neighs/atom = 503.59
Ave special neighs/atom = 9.14286
Neighbor list builds = 31872
Dangerous builds = 0

write_data butane_afterr_nvt1_200K.data
Ewald initialization ...
  using 12-bit tables for long-range coulomb (src/kspace.cpp:332)
  G vector (1/distance) = 0.18754
  estimated absolute RMS force accuracy = 0.00332589
  estimated relative force accuracy = 1.00158e-05
  KSpace vectors: actual max1d max3d = 257 5 665
                  kxmax kymax kzmax  = 5 5 5
Total wall time: 0:25:19
