LAMMPS (3 Mar 2020)
  using 1 OpenMP thread(s) per MPI task
units           real
atom_style      full
boundary        p p p


pair_style      lj/cut/coul/long 12.0
pair_modify     tail yes mix geometric
bond_style      harmonic
angle_style     harmonic
dihedral_style  opls

kspace_style    ewald 1.0e-5
#special_bonds   lj/coul 0.0 0.0 0.5

neighbor        2.0 bin
neigh_modify    every 1 delay 0 check yes

read_data       buate_after_min.data
  orthogonal box = (0 0 0) to (35 35 35)
  2 by 3 by 4 MPI processor grid
  reading atoms ...
  2352 atoms
  reading velocities ...
  2352 velocities
  scanning bonds ...
  1 = max bonds/atom
  scanning angles ...
  6 = max angles/atom
  scanning dihedrals ...
  11 = max dihedrals/atom
  reading bonds ...
  2184 bonds
  reading angles ...
  4032 angles
  reading dihedrals ...
  4536 dihedrals
  4 = max # of 1-2 neighbors
  6 = max # of 1-3 neighbors
  9 = max # of 1-4 neighbors
  13 = max # of special neighbors
  special bonds CPU = 0.00105062 secs
  read_data CPU = 0.169182 secs

group           mobile union all
2352 atoms in group mobile

#minimize 1.0e-8 1.0e-10 400000 400000
#write_data buate_after_min.data

thermo_style    custom step time  etotal ke pe temp press vol density
#thermo_modify   line multi
thermo          2000
thermo_modify   flush yes
timestep 1.0


## Equil NPT ##
fix      NPT  all npt temp 215 215 100 iso 1 1 1000
restart 1000000 liqbut1.restart

#fix      NPT  all npt temp 160 160 50 iso 1 1 500
dump myDump all atom 2000 butane_npt.lammpstrj

run 5000000
Ewald initialization ...
  using 12-bit tables for long-range coulomb (src/kspace.cpp:332)
  G vector (1/distance) = 0.183139
  estimated absolute RMS force accuracy = 0.00345955
  estimated relative force accuracy = 1.04183e-05
  KSpace vectors: actual max1d max3d = 257 5 665
                  kxmax kymax kzmax  = 5 5 5
Neighbor list info ...
  update every 1 steps, delay 0 steps, check yes
  max neighbors/atom: 2000, page size: 100000
  master list distance cutoff = 14
  ghost atom cutoff = 14
  binsize = 7, bins = 5 5 5
  1 neighbor lists, perpetual/occasional/extra = 1 0 0
  (1) pair lj/cut/coul/long, perpetual
      attributes: half, newton on
      pair build: half/bin/newton
      stencil: half/bin/3d/newton
      bin: standard
Per MPI rank memory allocation (min/avg/max) = 21.72 | 21.89 | 22.62 Mbytes
Step Time TotEng KinEng PotEng Temp Press Volume Density 
       0            0   -769.51728            0   -769.51728            0   -124.28966        42875   0.37818125 
    2000         2000   -115.59496    478.17419   -593.76915    68.233744   -94.553752    33918.232   0.47804735 
    4000         4000    2258.0399    1546.6799    711.35996    220.70569      440.573    48598.011   0.33364577 
    6000         6000    2506.8815    1524.3213    982.56024    217.51519   -573.63202    60411.046   0.26840325 
    8000         8000    2614.9709    1538.7372    1076.2337    219.57228    60.513985    70157.667   0.23111545 
   10000        10000    2677.7751    1500.4903    1177.2848    214.11458   -332.22465    80369.277   0.20175024 
   12000        12000    2731.3728    1513.4537    1217.9191    215.96442    267.65063    86822.897   0.18675397 
   14000        14000    2745.6426    1487.9118    1257.7307    212.31969    -258.3439    88006.892   0.18424149 
   16000        16000    2800.2913    1493.7575    1306.5337    213.15385    14.097424    92720.558   0.17487514 
   18000        18000    2772.7449    1487.6891    1285.0558    212.28791   -338.42175    93487.199   0.17344108 
   20000        20000    2860.7491    1529.0204    1331.7287    218.18573    266.56569    84446.253   0.19200995 
   22000        22000    2668.4815    1440.0657    1228.4158    205.49221   -397.36529    77918.127    0.2080969 
   24000        24000    2717.9404    1526.7621    1191.1783    217.86348    153.99539    70415.988   0.23026761 
   26000        26000    2704.2471    1530.9459    1173.3012     218.4605   -274.46147    64230.718   0.25244184 
   28000        28000     2640.041    1539.4741     1100.567    219.67744    102.28143    56905.239   0.28493898 
   30000        30000    2587.9576     1483.039    1104.9186    211.62435   -130.68463    51052.662   0.31760383 
   32000        32000    2531.7044    1454.3089    1077.3956    207.52466   -823.56666    46324.085   0.35002355 
   34000        34000     2390.881    1448.9915    941.88948    206.76589   -99.613412    41143.703   0.39409484 
   36000        36000    2486.1279    1538.3155    947.81239    219.51211   -122.72897    35825.238   0.45260051 
   38000        38000    2365.9498    1484.0144    881.93545    211.76354   -577.69359    32341.123   0.50135925 
   40000        40000    2356.5271    1523.6012      832.926    217.41243    367.97848    28452.141   0.56988754 
   42000        42000    2300.1584    1499.6193    800.53911     213.9903   -446.45799    27250.549    0.5950163 
   44000        44000    2274.2581    1535.2329    739.02513    219.07224   -404.67692    26497.577   0.61192466 
   46000        46000    2176.9267    1482.5203    694.40637    211.55034    401.32101     26077.47   0.62178274 
   48000        48000    2274.7456     1522.904    751.84156    217.31294    729.42983    25887.346   0.62634931 
   50000        50000    2242.5456    1503.6395    738.90603    214.56397   -791.66634    25843.803   0.62740461 
   52000        52000    2215.7468    1482.1615    733.58521    211.49914    1879.5775    25575.534   0.63398563 
   54000        54000    2288.6988    1536.0975    752.60126    219.19561   -1.8075309    24930.368   0.65039236 
   56000        56000    2177.1351    1463.5626    713.57253    208.84514   -819.15492    24638.152   0.65810621 
   58000        58000    2219.4649    1528.6841     690.7808    218.13774    987.26666    24546.232   0.66057067 
   60000        60000    2201.5651    1465.2349    736.33017    209.08377   -798.28993    24645.297   0.65791542 
   62000        62000    2217.2097    1544.0881    673.12155    220.33585   -897.24722    24557.893     0.660257 
   64000        64000    2208.7226     1505.098    703.62458     214.7721    1594.6068    24759.139   0.65489035 
   66000        66000    2176.8786    1503.3948     673.4838    214.52905   -85.049895    24228.904   0.66922223 
   68000        68000    2170.9129    1496.7592    674.15362    213.58218   -476.98593    24324.838   0.66658289 
   70000        70000    2210.3757    1511.4372    698.93847    215.67667     928.8008    24273.299   0.66799824 
   72000        72000    2194.1314    1499.6928    694.43861    214.00079   -1444.4718    24596.831   0.65921179 
   74000        74000    2216.6268    1527.7445    688.88224    218.00367   -325.93029    24245.817   0.66875539 
   76000        76000    2188.6396    1514.2436    674.39603    216.07714    -1369.834    24110.095   0.67251998 
   78000        78000    2240.2129     1513.088    727.12493    215.91223   -229.69517    24635.735   0.65817079 
   80000        80000    2150.6362    1467.5371     683.0991    209.41229    1382.7887    23893.525    0.6786157 
   82000        82000     2206.855    1556.9529    649.90218    222.17159   -7.7297069    24319.531   0.66672836 
   84000        84000     2156.771    1482.2027    674.56829    211.50501   -77.306348    24244.577   0.66878961 
   86000        86000    2191.3774    1507.5122    683.86522    215.11659    650.71321    23977.885   0.67622815 
   88000        88000    2098.0404    1456.3415    641.69888    207.81471    187.71208    24022.194   0.67498086 
   90000        90000    2086.2007    1434.4213    651.77937    204.68678    230.01998    23840.151   0.68013499 
   92000        92000    2174.4466    1504.1044    670.34227     214.6303   -855.55343    24341.325   0.66613139 
   94000        94000    2176.1186    1488.2019    687.91675    212.36108    557.49104    24310.036   0.66698876 
   96000        96000    2143.6792    1510.0949    633.58428    215.48514    521.68498    24171.802   0.67080316 
   98000        98000    2122.5764    1475.1386    647.43779      210.497    281.93293     23763.32   0.68233398 
  100000       100000    2163.0662    1483.3584    679.70781    211.66992   -105.94065    24567.241   0.66000578 
  102000       102000    2190.9277    1500.3421     690.5856    214.09344   -1096.3901    24309.177   0.66701234 
  104000       104000    2161.4677    1507.8813    653.58632    215.16926   -675.20986    24367.372   0.66541937 
  106000       106000    2149.2973    1476.4191    672.87829    210.67971    358.06548    23928.836   0.67761428 
  108000       108000    2158.7085    1465.4525    693.25603    209.11482   -1817.3986     24368.44   0.66539019 
  110000       110000    2227.6099    1496.8311    730.77878    213.59244   -787.08357    24278.596    0.6678525 
  112000       112000    2238.5896    1556.3172    682.27242    222.08089   -480.37704    24273.013    0.6680061 
  114000       114000    2204.3201    1528.8752    675.44485    218.16502   -946.62814    24617.469   0.65865915 
  116000       116000    2191.8139    1519.8431    671.97076    216.87617    1415.9927    24483.849   0.66225375 
  118000       118000     2139.932    1483.1625    656.76954    211.64197   -363.39849    23868.456   0.67932844 
  120000       120000    2177.6717    1498.5575    679.11416    213.83879   -2302.5466    24779.028   0.65436469 
  122000       122000    2164.2861     1490.336    673.95005    212.66561    50.624107    24208.805   0.66977782 
  124000       124000    2158.6336     1528.415    630.21864    218.09934     1211.527    23860.259   0.67956181 
  126000       126000    2177.7511    1497.9761    679.77499    213.75583    608.36064        24110   0.67252265 
  128000       128000    2197.1135    1518.5998    678.51369    216.69875    515.11093    23901.921   0.67837732 
  130000       130000     2196.299     1514.281    682.01795    216.08248   -480.38463    23801.947   0.68122666 
  132000       132000    2198.5961    1523.9236    674.67251    217.45844   -667.23649     23893.33   0.67862124 
  134000       134000    2131.4584    1505.2952    626.16315    214.80024   -146.05612    23659.011   0.68534231 
  136000       136000    2266.1331    1543.4274    722.70575    220.24156    1100.9113    24096.539   0.67289834 
  138000       138000    2120.0544    1510.1046    609.94974    215.48652    423.50783    23538.894   0.68883954 
  140000       140000    2192.7281    1526.3707    666.35741    217.80763   -1739.2421    24220.942    0.6694422 
  142000       142000    2193.8231    1508.7207    685.10239    215.28904   -564.86029    23961.228   0.67669825 
  144000       144000    2131.2326     1451.406    679.82653    207.11044     1216.966    24305.148   0.66712289 
  146000       146000    2241.6771    1552.8174    688.85968    221.58148   -737.08648    24418.188   0.66403457 
  148000       148000    2190.9834    1477.9863    712.99708    210.90335   -633.82888    24270.295   0.66808093 
  150000       150000    2220.1375    1556.4343    663.70316     222.0976   -1374.6815    24097.744   0.67286468 
  152000       152000    2171.4912    1513.9865    657.50467    216.04045    251.31474    24003.535   0.67550554 
  154000       154000    2216.7747    1536.5128    680.26198    219.25486   -573.65479    24124.472   0.67211921 
  156000       156000    2214.2609    1498.6409    715.61997    213.85069    90.279388    24441.563   0.66339951 
  158000       158000    2221.5144    1517.1633    704.35112    216.49377    428.85099    24490.817   0.66206533 
  160000       160000    2153.7019    1482.2166    671.48525      211.507    1129.6209    24071.908   0.67358686 
  162000       162000    2147.6391    1477.3627    670.27638    210.81437    113.98474    24003.885   0.67549569 
  164000       164000    2160.2904     1501.462    658.82838    214.25325    978.83952    23959.132   0.67675746 
  166000       166000    2170.0966    1475.6803    694.41631    210.57429   -111.59778    24008.229   0.67537348 
  168000       168000    2197.5178    1500.2624    697.25539    214.08207    2219.2518    24421.603   0.66394171 
  170000       170000    2199.0536    1510.4516    688.60205    215.53603   -2488.4988    24160.231   0.67112442 
  172000       172000    2190.1881    1502.1818     688.0063    214.35597    714.37332    24387.577   0.66486806 
  174000       174000    2201.3416    1513.2519    688.08973    215.93562   -657.30664    24484.897   0.66222541 
  176000       176000    2174.5901    1520.0341    654.55597    216.90342    1638.0773    23936.193   0.67740602 
  178000       178000    2230.8937    1528.6531    702.24054    218.13332    64.374531    24343.605   0.66606902 
  180000       180000     2167.832    1494.5565    673.27551    213.26786    765.84274    23985.154   0.67602321 
  182000       182000    2179.3866    1520.1182    659.26844    216.91542    453.93655    23895.374   0.67856318 
  184000       184000    2228.8183    1523.9346     704.8837    217.46001    296.65655     24229.97   0.66919279 
  186000       186000    2115.6144    1482.3832    633.23114    211.53078   -803.87505    23354.519   0.69427767 
  188000       188000    2183.7852    1503.6597    680.12552    214.56685    1524.4387    24501.997   0.66176324 
  190000       190000    2177.4435    1544.5134    632.93015    220.39652    2208.6503    23851.146   0.67982146 
  192000       192000    2206.4344    1526.8377    679.59666    217.87427    1462.7676    23916.092   0.67797534 
  194000       194000    2217.0883     1532.962    684.12628    218.74819   -278.91479    24110.037   0.67252161 
  196000       196000    2240.6734    1532.7028    707.97058     218.7112    955.73137    24654.236   0.65767687 
  198000       198000    2253.4613    1530.0165    723.44482    218.32787   -553.08167    24355.374   0.66574716 
  200000       200000    2170.4685    1479.9916    690.47692     211.1895   -264.56769    23982.012   0.67611178 
  202000       202000    2185.2531    1503.1048    682.14831    214.48768    55.914544    24015.512   0.67516864 
  204000       204000     2218.846    1535.3223    683.52368      219.085   -490.41092    24013.215   0.67523323 
  206000       206000    2091.4437     1462.619    628.82469    208.71049    410.20146    23912.113   0.67808818 
  208000       208000    2142.8148    1501.4467    641.36809    214.25107   -268.32754    23670.054   0.68502255 
  210000       210000    2241.5042     1563.221    678.28327    223.06603    235.78593    24008.056   0.67537834 
  212000       212000    2231.4393    1533.7815    697.65775    218.86513   -617.83463    24242.165   0.66885613 
  214000       214000    2173.2971    1490.1329    683.16419    212.63662    637.65094    23938.832   0.67733133 
  216000       216000    2199.4748    1542.5666     656.9082    220.11873    333.30748    24297.495   0.66733303 
  218000       218000    2224.8901    1504.8458    720.04427     214.7361   -1511.2306    24340.087   0.66616529 
  220000       220000    2223.4828    1519.9417    703.54111    216.89023    918.30642    23979.715   0.67617655 
  222000       222000    2128.1227    1475.4005     652.7222    210.53437   -1003.7317    24436.729   0.66353074 
  224000       224000     2204.418    1534.7967    669.62131    219.00999    1434.7399    24367.355   0.66541981 
  226000       226000    2159.2351    1493.6371    665.59809    213.13666     286.5009    24221.741   0.66942013 
  228000       228000    2144.5147    1511.1006     633.4141    215.62864   -681.46746    24309.192   0.66701193 
  230000       230000    2201.0462    1518.7442    682.30198    216.71935    9.7904203    24141.958    0.6716324 
  232000       232000    2200.5389    1495.7556    704.78325    213.43897   -1327.0412    24333.866   0.66633559 
  234000       234000    2203.8571    1499.6484     704.2087    213.99446    257.07068    24024.138   0.67492623 
  236000       236000    2212.2291    1541.8925    670.33652    220.02254   -229.35735    24022.217    0.6749802 
  238000       238000    2159.2353     1483.647     675.5883    211.71111    1038.1056    24299.148   0.66728763 
  240000       240000    2097.6797    1454.0979    643.58173    207.49456   -812.93147    24000.877   0.67558036 
  242000       242000    2250.4131    1561.9495    688.46364     222.8846    1015.4017    24238.214   0.66896517 
  244000       244000    2188.8037    1492.3702    696.43349    212.95588   -589.08802    23883.834   0.67889103 
  246000       246000    2162.0092    1518.1112    643.89805    216.62903   -1107.1118    24095.755   0.67292023 
  248000       248000    2210.5884    1510.7222    699.86623    215.57464   -337.22583    23804.939   0.68114105 
  250000       250000    2214.1211    1549.1181    665.00304     221.0536    -1113.575    23914.268   0.67802708 
  252000       252000    2207.7485    1504.3514    703.39713    214.66555   -1014.3686    23751.071    0.6826859 
  254000       254000    2106.2477    1452.9183    653.32936    207.32624    2721.9026    23571.293   0.68789272 
  256000       256000    2186.7854    1543.2816    643.50384    220.22075    1149.3354    23553.475    0.6884131 
  258000       258000    2185.4283    1530.9439    654.48437    218.46021    711.94558    24145.237   0.67154119 
  260000       260000    2230.4509    1506.3646    724.08638    214.95282    1741.5338    24118.976   0.67227236 
  262000       262000    2204.3939    1530.6033    673.79057    218.41161   -626.30902    24121.448   0.67220346 
  264000       264000     2196.586    1518.2863    678.29976    216.65401    1645.4838    23863.801   0.67946094 
  266000       266000    2130.6919    1454.7732    675.91867    207.59093   -1159.4348    23884.544   0.67887086 
  268000       268000    2148.3675    1459.8783    688.48925     208.3194   -772.33359    24133.935   0.67185567 
  270000       270000    2222.8694    1532.0991    690.77037    218.62505   -531.11974    23930.623   0.67756367 
  272000       272000    2176.9059    1516.7326    660.17335    216.43231   -216.76191    23862.917   0.67948612 
  274000       274000    2184.3746    1526.0085    658.36613    217.75595    189.13291    23687.936   0.68450544 
  276000       276000    2141.8431    1482.7218    659.12126    211.57909    959.69682      23679.6   0.68474639 
  278000       278000    2147.1696    1479.2986    667.87095    211.09061   -308.73648    23905.425   0.67827788 
  280000       280000    2173.5197    1496.5801    676.93966    213.55662    1193.0474     23696.76   0.68425055 
  282000       282000    2213.8255    1516.0106    697.81491    216.32928    306.56152    24003.728   0.67550011 
  284000       284000    2167.2284    1522.9843    644.24412     217.3244   -1376.2134    24125.293   0.67209632 
  286000       286000    2164.7999     1501.706    663.09385    214.28807    646.82037    23970.019   0.67645007 
  288000       288000    2195.7974    1519.6813    676.11611    216.85308    30.919371    24673.762   0.65715641 
  290000       290000    2152.6571    1484.4654    668.19171    211.82789    1613.9857    23510.022   0.68968548 
  292000       292000    2207.0074    1525.8255    681.18196    217.72983   -1215.9026    23865.864   0.67940222 
  294000       294000    2157.2792    1509.1569     648.1223    215.35128    822.11518    24135.867   0.67180188 
  296000       296000    2223.8109    1496.5423    727.26867    213.55122   -499.46661    23845.782    0.6799744 
  298000       298000    2161.4461    1498.7365    662.70964    213.86432   -694.23127    23943.926   0.67718722 
  300000       300000    2147.8306    1510.3779    637.45267    215.52551    1344.3666    23664.709   0.68517727 
  302000       302000    2183.6293    1489.9572    693.67208    212.61156    1254.2946    24013.185   0.67523407 
  304000       304000    2201.3437    1506.7164    694.62732    215.00303    323.63747    24065.418   0.67376851 
  306000       306000    2178.7245    1532.3397     646.3848    218.65939   -366.87826    24312.685   0.66691609 
  308000       308000    2180.0501    1523.7154    656.33467    217.42873   -1256.6523    24007.307   0.67539941 
  310000       310000    2225.1591    1521.1592    703.99991    217.06397   -62.686878    24450.072   0.66316865 
  312000       312000    2164.8387     1538.103    626.73571    219.48178    1918.6438    24026.836   0.67485044 
  314000       314000    2148.4516    1497.6214    650.83022    213.70521    145.86848    24454.505   0.66304843 
  316000       316000    2252.9272     1546.572    706.35521    220.69029   -343.92525    24506.022   0.66165455 
  318000       318000    2243.7497    1511.0582    732.69147    215.62259    716.60413    23944.216   0.67717904 
  320000       320000    2187.9062    1516.2959    671.61033    216.36999   -1012.2391    24152.825   0.67133019 
  322000       322000     2191.443    1529.1765    662.26651      218.208    766.73986    24316.228   0.66681892 
  324000       324000    2162.4495    1501.6595    660.78993    214.28144    369.82899     23811.44   0.68095507 
  326000       326000    2223.2209     1529.224    693.99686    218.21479    675.46499    24627.335   0.65839527 
  328000       328000    2187.6497    1500.7668    686.88286    214.15404    171.56779    24400.323   0.66452075 
  330000       330000    2207.1062    1512.7461    694.36015    215.86344   -306.09978    24281.286   0.66777852 
  332000       332000    2212.2367    1503.0778    709.15891    214.48381    1230.7409    23997.185   0.67568429 
  334000       334000    2217.2059    1481.3269    735.87903    211.38004   -1103.5662    24299.808    0.6672695 
  336000       336000    2176.5828    1465.7934     710.7894    209.16346    162.81825     24508.12    0.6615979 
  338000       338000    2211.7351    1535.0615     676.6736    219.04777     677.7628    24343.059   0.66608396 
  340000       340000    2168.8238    1457.2276    711.59622    207.94116   -1628.2746    24443.394   0.66334982 
  342000       342000    2167.8199    1509.7782     658.0416    215.43995   -752.71124     24200.94    0.6699955 
  344000       344000    2195.9525    1516.4117    679.54084    216.38651    653.12944    24140.461   0.67167405 
  346000       346000    2194.6523    1488.7314    705.92094    212.43663    423.15042    24277.825   0.66787371 
  348000       348000    2172.2836    1490.6112    681.67246    212.70487    -833.6949    24323.988   0.66660618 
  350000       350000    2225.6414    1514.0963    711.54504    216.05612   -604.10103    23958.444   0.67677689 
  352000       352000    2145.3001     1468.236    677.06405    209.51202    1029.2706    24026.308   0.67486526 
  354000       354000    2209.7977    1512.7316    697.06616    215.86137    88.147379    24127.451   0.67203623 
  356000       356000    2162.1617    1504.8238    657.33795    214.73296    620.51953    23993.058   0.67580051 
  358000       358000    2158.6165    1481.1468    677.46967    211.35435    350.01079    23742.881   0.68292137 
  360000       360000    2201.2819    1561.2275    640.05438    222.78157    385.48596    23882.403   0.67893173 
  362000       362000    2146.5043    1517.4254    629.07894    216.53117   -868.58923    23753.357   0.68262019 
  364000       364000    2155.6525    1473.2235    682.42906    210.22371   -252.24509    24359.231   0.66564173 
  366000       366000    2183.4418     1486.371    697.07082    212.09981   -297.39774    24149.551   0.67142123 
  368000       368000    2218.6436     1513.275    705.36859    215.93892   -1.5600774    23991.049    0.6758571 
  370000       370000    2145.0149    1494.4034    650.61158    213.24601   -514.99155    24087.766   0.67314342 
  372000       372000    2209.3595    1502.9133    706.44623    214.46034    2213.5601     24056.04   0.67403118 
  374000       374000    2220.8138    1536.0911    684.72274     219.1947   -923.14199    23850.954   0.67982693 
  376000       376000    2063.5864    1471.9008    591.68563    210.03497    1322.9299    23727.747   0.68335695 
  378000       378000    2169.3874    1490.6564    678.73102    212.71133    1600.7072    23870.102   0.67928159 
  380000       380000    2144.5506    1465.3118     679.2388    209.09474    33.949911    24099.347   0.67281992 
  382000       382000    2240.1958    1546.5555    693.64028    220.68793    905.83398    23999.751   0.67561205 
  384000       384000    2163.1231    1482.7626    680.36057     211.5849      466.989    24248.399   0.66868418 
  386000       386000    2162.1977       1500.3    661.89772    214.08743   -97.178017    23961.957   0.67667766 
  388000       388000    2124.0149    1474.8505    649.16433    210.45589   -133.19953     24362.21   0.66556035 
  390000       390000    2225.5799    1531.2994     694.2805    218.51094   -2321.2897    24087.274   0.67315716 
  392000       392000     2178.816    1528.2905    650.52552    218.08158    189.50114    24029.229   0.67478325 
  394000       394000    2164.5967    1479.9367    684.65993    211.18167   -987.99832    24298.475   0.66730611 
  396000       396000    2214.2622    1488.6245    725.63774    212.42138   -236.58098    24691.932   0.65667284 
  398000       398000    2202.2086    1531.3397    670.86889    218.51669    1186.1845    23991.123   0.67585502 
  400000       400000    2160.0474    1486.3735     673.6739    212.10018    534.97345    24103.067   0.67271609 
  402000       402000    2229.6776    1564.7428    664.93481    223.28319   -1658.9305    24001.065   0.67557505 
  404000       404000    2213.9528    1530.8434    683.10939    218.44586   -634.92653    24336.223   0.66627104 
  406000       406000    2253.2248    1520.3633    732.86152    216.95039   -235.01076    24344.913   0.66603323 
  408000       408000    2210.6915    1523.8449    686.84653    217.44721   -394.88127    23953.564   0.67691475 
  410000       410000     2205.568    1519.2019    686.36604    216.78467   -68.223542    23927.122   0.67766283 
  412000       412000    2174.4914    1469.9258    704.56562    209.75314    -347.1246    24045.976   0.67431328 
  414000       414000    2208.3337    1497.1395    711.19422    213.63644    220.40082    23965.552   0.67657615 
  416000       416000    2158.0203      1467.32    690.70031     209.3813    88.436821    23799.572   0.68129463 
  418000       418000    2197.2223    1526.0222    671.20002     217.7579    383.45991    23923.911   0.67775377 
  420000       420000    2202.6445    1508.5331    694.11139    215.26227    794.15395    24384.271    0.6649582 
  422000       422000    2094.6425    1455.3563     639.2862    207.67413   -113.07299    23867.196   0.67936431 
  424000       424000    2232.9979    1511.7809      721.217    215.72572   -775.37297    24195.288     0.670152 
  426000       426000    2145.8285    1474.7373    671.09123    210.43973    576.23083    23822.102   0.68065029 
  428000       428000     2167.773    1476.7223    691.05071    210.72298    874.33523    23971.922   0.67639638 
  430000       430000    2170.1764    1481.7349     688.4415    211.43826    -191.0265    23884.276   0.67887847 
  432000       432000    2205.9051    1505.5769    700.32825    214.84042   -210.90717    24304.201   0.66714889 
  434000       434000    2184.2056    1524.2625     659.9431    217.50679    485.91721    23767.287   0.68222011 
  436000       436000    2137.6264     1527.392    610.23439    217.95337   -284.87317    23579.522   0.68765265 
  438000       438000    2165.9887    1528.6551    637.33351    218.13361    755.12496    23837.631   0.68020689 
  440000       440000    2155.1126    1511.5644    643.54817    215.69483    896.75368    23963.057   0.67664659 
  442000       442000    2267.5104    1555.4044    712.10603    221.95063   -569.57153    24098.669   0.67283887 
  444000       444000    2106.6165    1454.4373    652.17912      207.543    2572.8712    23793.274   0.68147499 
  446000       446000    2213.5975    1533.9255    679.67195    218.88568   -425.09077    23878.157   0.67905244 
  448000       448000    2218.3741    1526.0263     692.3478    217.75848    308.40139    23947.392   0.67708923 
  450000       450000    2229.4678    1523.0559    706.41189    217.33462     660.5965    24175.685   0.67069542 
  452000       452000    2123.3907     1491.806    631.58477    212.87536    858.44973     23926.19   0.67768921 
  454000       454000     2248.682    1523.9298    724.75221    217.45932    -345.3291     24379.56   0.66508669 
  456000       456000    2093.9145    1483.2226     610.6919    211.65055   -1131.6233    23853.017   0.67976815 
  458000       458000    2204.3024    1513.6388    690.66364    215.99083    453.11859    23799.292   0.68130265 
  460000       460000    2132.3899    1502.3597    630.03017    214.38135    -420.5697    24256.968   0.66844795 
  462000       462000    2180.6431    1455.8438    724.79927     207.7437   -715.73699    24030.891   0.67473657 
  464000       464000    2209.7102    1540.8491     668.8611    219.87364   -953.87581    23914.062   0.67803291 
  466000       466000    2192.3532    1535.3775    656.97571    219.09287   -303.34311    24282.953   0.66773266 
  468000       468000    2210.1217    1497.6436    712.47813    213.70838   -1262.0827    24060.086   0.67391782 
  470000       470000     2241.795    1528.2652    713.52977    218.07797    1559.7296     23776.13   0.68196637 
  472000       472000    2162.7879    1524.3094    638.47848    217.51349    985.31791    23813.312   0.68090153 
  474000       474000    2091.0079    1479.6707    611.33718    211.14371    239.83446    23275.759   0.69662696 
  476000       476000    2114.7321    1469.4797    645.25239    209.68949   -591.22654    24304.091   0.66715191 
  478000       478000    2201.2724    1518.9535    682.31889    216.74922    -1189.651    24362.469   0.66555327 
  480000       480000    2163.4943    1467.2555    696.23884     209.3721    1048.5416    24057.245   0.67399741 
  482000       482000    2234.1874    1561.1848    673.00259    222.77547     909.3426    24167.994   0.67090884 
  484000       484000     2161.982    1508.6052    653.37684    215.27255    -370.0311    24007.148    0.6754039 
  486000       486000    2176.0896    1512.5623     663.5273    215.83723    988.85302    24316.645   0.66680749 
  488000       488000    2156.0592    1461.5344    694.52475    208.55573   -343.24878    23711.274   0.68383169 
  490000       490000    2142.9431    1472.2011    670.74201    210.07782   -80.611127    24291.195   0.66750609 
  492000       492000    2339.7452    1598.2959    741.44931    228.07109   -753.30084    24255.033    0.6685013 
  494000       494000     2151.905    1503.3102    648.59479    214.51698   -294.56847    23866.921   0.67937212 
  496000       496000    2245.0139    1559.2102    685.80364    222.49371    1315.0922    23763.845   0.68231893 
  498000       498000    2146.4613    1487.9594     658.5019    212.32647   -770.15705    24234.191   0.66907621 
  500000       500000    2164.0626     1502.806    661.25653    214.44504    416.98112     24162.89   0.67105057 
  502000       502000    2204.9755    1514.3167    690.65877    216.08757    1187.8902    23956.241   0.67683911 
  504000       504000    2139.6614    1503.8891    635.77235    214.59959    1037.9352     23945.85   0.67713282 
  506000       506000    2235.5274    1513.8657     721.6617    216.02321   -1432.6278    24386.401   0.66490013 
  508000       508000    2186.1017    1541.4446    644.65709    219.95862    138.45676    24150.575   0.67139274 
  510000       510000    2280.9759    1573.1728    707.80313    224.48612    1862.5965    24642.256   0.65799662 
  512000       512000    2234.9544    1523.0074    711.94702     217.3277    1303.3431    24332.537   0.66637197 
  514000       514000    2213.6111    1528.8798    684.73125    218.16568    1202.9026     24338.83   0.66619968 
  516000       516000    2176.0404    1470.2963     705.7441    209.80602    111.66678    23836.261     0.680246 
  518000       518000    2173.7609    1471.9558    701.80507    210.04282     803.5583     24299.48    0.6672785 
  520000       520000    2166.4934    1478.7402    687.75321    211.01093    940.15409    24147.073   0.67149013 
  522000       522000    2210.5039    1509.6907    700.81329    215.42745    474.96925    24006.715   0.67541606 
  524000       524000    2181.6478    1518.5333    663.11446    216.68926   -194.44109    24138.726   0.67172232 
  526000       526000    2126.4718    1485.6837    640.78816    212.00174    786.52161    24016.172   0.67515009 
  528000       528000    2178.1953    1494.2512    683.94414    213.22429    -300.5562    24594.019   0.65928715 
  530000       530000    2161.1317    1510.5359    650.59579    215.54807     1624.799    23810.756   0.68097464 
  532000       532000    2137.2589    1519.7681    617.49073    216.86547   -863.76866    24153.434   0.67131329 
  534000       534000    2230.0829    1543.7837    686.29924     220.2924    531.67335    23750.577   0.68270009 
  536000       536000    2175.9461    1498.5107    677.43544    213.83211    685.70606    23841.036   0.68010975 
  538000       538000    2174.2548    1496.4893     677.7655    213.54366    802.10947    23979.958   0.67616971 
  540000       540000     2223.865    1536.2967    687.56828    219.22404   -329.00942    24271.727   0.66804149 
  542000       542000    2124.2213    1465.0417    659.17961    209.05621    763.69665     24040.69   0.67446155 
  544000       544000    2237.0356      1548.77    688.26557    221.00393    104.47942    24080.637    0.6733427 
  546000       546000    2191.3248    1516.6086    674.71625    216.41461     864.8108    24004.667    0.6754737 
  548000       548000    2143.1773    1490.4752    652.70206    212.68548   -798.49736    24309.432   0.66700535 
  550000       550000    2228.2633    1529.5627    698.70063    218.26312    600.14646    23862.157   0.67950776 
  552000       552000    2134.9856    1474.1797    660.80583    210.36017   -967.51555     23822.08   0.68065092 
  554000       554000    2258.6536    1538.3025    720.35107    219.51026    855.48045    24126.094   0.67207401 
  556000       556000    2140.6421    1441.3074    699.33463    205.66941   -199.65114    24035.411   0.67460969 
  558000       558000    2203.9335    1497.8029    706.13058    213.73111    -2399.887     24457.06   0.66297917 
  560000       560000    2129.1948    1490.8905    638.30429    212.74473    209.27334    23807.751    0.6810606 
  562000       562000     2206.131    1527.0281    679.10293    217.90144     979.0552    23742.039   0.68294558 
  564000       564000    2157.0781    1477.5015    679.57658    210.83417    495.40123    24124.812   0.67210972 
  566000       566000    2153.0029    1458.0957    694.90716    208.06503   -732.66015    24386.645   0.66489347 
  568000       568000    2239.7047    1531.8907    707.81397    218.59532    593.79345    24182.121   0.67051692 
  570000       570000    2197.0509    1505.6492    691.40169    214.85074   -449.42488    24327.932   0.66649812 
  572000       572000    2257.7855    1521.7189    736.06658    217.14383   -1093.4742     24575.36   0.65978773 
  574000       574000    2181.2473    1475.0968    706.15057    210.49102   -240.61375    24623.311   0.65850286 
  576000       576000     2185.448    1511.2161    674.23197    215.64512    462.28335    24207.206   0.66982208 
  578000       578000    2171.7246    1480.5361    691.18849    211.26719    913.47551    24217.353   0.66954143 
  580000       580000    2254.8354    1538.2023    716.63309    219.49596    990.82891    24037.533   0.67455014 
  582000       582000    2186.0154    1520.6966    665.31879    216.99795   -1546.1974    24210.453   0.66973223 
  584000       584000    2214.7686    1520.3173    694.45126    216.94384    139.31198    24390.325   0.66479316 
  586000       586000    2209.0358    1499.2907     709.7451    213.94341    19.275933    24158.954   0.67115988 
  588000       588000    2167.1607     1483.083    684.07772    211.63063   -429.44736    24475.569    0.6624778 
  590000       590000    2150.7953    1496.2289     654.5664     213.5065   -11.036229    24088.088    0.6731344 
  592000       592000     2197.472    1495.3773    702.09477    213.38498    672.38948    24305.959   0.66710065 
  594000       594000     2226.446    1529.0119    697.43416    218.18452   -502.00515    24271.069   0.66805962 
  596000       596000    2137.1491    1493.5534    643.59568    213.12472   -213.34972    24124.315   0.67212357 
  598000       598000    2216.3627    1528.1976    688.16506    218.06832   -864.31827    23795.472   0.68141205 
  600000       600000    2173.6934    1512.0693    661.62411    215.76687   -267.07011    24062.683   0.67384511 
  602000       602000    2209.8803    1516.8402    693.04007    216.44767     1228.394    23917.105   0.67794664 
  604000       604000    2149.0338    1499.0164    650.01736    213.90427   -1083.1814    23906.956   0.67823444 
  606000       606000    2168.5655     1491.191    677.37448    212.78761   -690.05092    24190.283   0.67029066 
  608000       608000    2216.2087    1529.6549    686.55379    218.27627     1451.753    23980.481   0.67615496 
  610000       610000    2195.3679    1514.0085    681.35936    216.04359   -434.89751    23800.763   0.68126056 
  612000       612000    2129.2501      1443.87    685.38009    206.03507   -1110.5133    24121.093   0.67221335 
  614000       614000     2180.819     1510.747    670.07195    215.57819   -444.60966    24073.873   0.67353188 
  616000       616000    2152.9517    1520.1023    632.84939    216.91315    655.00462    24004.123     0.675489 
  618000       618000    2144.9728    1476.5458    668.42693     210.6978    -341.1227    23836.535   0.68023817 
  620000       620000    2198.6605    1518.0792    680.58127    216.62447    563.86201    24441.087   0.66341244 
  622000       622000    2200.0538    1516.1574    683.89637    216.35023   -725.38953    24413.122   0.66417238 
  624000       624000    2156.8222    1507.2911    649.53104    215.08504    751.78295    23820.914   0.68068425 
  626000       626000    2171.4843    1496.8462    674.63803     213.5946   -64.625405     24067.96   0.67369736 
  628000       628000    2217.0534    1498.7176    718.33579    213.86164   -1346.3398    24389.395    0.6648185 
  630000       630000    2203.7955    1537.7627     666.0328    219.43323   -1049.0867    24492.646   0.66201589 
  632000       632000    2155.4363    1498.4538     656.9825    213.82399    678.79068    23704.014   0.68404115 
  634000       634000    2208.3414    1533.0355    675.30596    218.75867    415.13481    23946.362   0.67711835 
  636000       636000    2204.0478    1473.7499    730.29789    210.29883   -737.89407    24395.183   0.66466076 
  638000       638000    2200.4693    1496.9474    703.52189    213.60903   -1244.0795    24650.157    0.6577857 
  640000       640000    2158.1997    1470.9993    687.20045    209.90633    33.415903    24022.773   0.67496457 
  642000       642000    2146.4861    1494.5469    651.93911    213.26649    99.314883    23601.934   0.68699968 
  644000       644000    2120.9324    1497.6595     623.2729    213.71065   -1442.3723    24056.933   0.67400615 
  646000       646000     2188.895    1497.1114    691.78366    213.63243    772.13322    24012.616   0.67525007 
  648000       648000    2185.4157    1488.5272    696.88853     212.4075    1679.4594    23864.824   0.67943182 
  650000       650000    2169.7877    1495.6602    674.12753    213.42535    535.59323    23917.726   0.67792905 
  652000       652000    2204.7594    1530.2746    674.48481    218.36471   -658.26466    24141.351   0.67164928 
  654000       654000    2186.8083    1502.2559    684.55239    214.36653    1412.6175    23778.405   0.68190111 
  656000       656000    2160.8746    1494.5752    666.29936    213.27053   -247.85291    24028.639   0.67479981 
  658000       658000    2134.5527    1447.1363    687.41639    206.50117    886.16959    24197.521   0.67009016 
  660000       660000    2161.9183    1466.1358    695.78252    209.21232    1745.4932    23973.521   0.67635126 
  662000       662000     2179.728    1532.6572     647.0708    218.70469    1095.6338    24063.977   0.67380886 
  664000       664000    2224.5294    1496.2677    728.26168    213.51204   -2211.5521    24272.476   0.66802088 
  666000       666000    2181.9809    1498.9259    683.05503    213.89135   -999.24195    23927.539   0.67765102 
  668000       668000    2155.8514    1492.5548     663.2966    212.98222   -158.90369    24072.323   0.67357524 
  670000       670000    2174.4741    1481.3998     693.0743    211.39044     1319.225    23525.267   0.68923856 
  672000       672000     2200.501    1518.3446    682.15635    216.66233   -1421.4801    24778.222   0.65438596 
  674000       674000    2223.4722    1518.1651    705.30714    216.63672    68.253455     24607.05   0.65893803 
  676000       676000    2162.4373    1490.7416    671.69572    212.72348     78.72981    24343.595   0.66606929 
  678000       678000    2231.9715     1521.157     710.8145    217.06365   -585.80673    24506.449   0.66164303 
  680000       680000    2188.2379    1499.8619    688.37602    214.02491   -1243.3122    24645.796    0.6579021 
  682000       682000    2149.3854    1483.4224    665.96301    211.67906    200.62071    24146.745   0.67149924 
  684000       684000    2196.8061    1550.9662    645.83996    221.31732   -83.318274    24317.603   0.66678122 
  686000       686000    2183.5784     1470.696    712.88248    209.86304   -697.18959    24390.653    0.6647842 
  688000       688000     2160.044    1482.9455    677.09846    211.61101   -1361.3688    23963.067   0.67664631 
  690000       690000    2197.1847     1536.275    660.90973    219.22093    1667.4081    24185.953   0.67041066 
  692000       692000    2172.7988    1471.6347    701.16401    209.99701   -9.3369174    24123.725   0.67214003 
  694000       694000    2140.8128    1455.1637    685.64907    207.64665   -316.87426    24217.022   0.66955059 
  696000       696000    2203.0759    1523.2369      679.839    217.36044    1055.1027    24421.324    0.6639493 
  698000       698000     2177.541     1529.234    648.30701    218.21622     -351.402    23797.637   0.68135004 
  700000       700000    2160.5591    1519.1074    641.45169    216.77119   -1243.1756      24049.6   0.67421167 
  702000       702000    2238.2355    1554.6676    683.56789    221.84549    1874.8974    23907.691    0.6782136 
  704000       704000    2232.8735    1539.0514    693.82215    219.61712    1178.5033    23971.538    0.6764072 
  706000       706000     2146.179    1520.5939    625.58511     216.9833     635.4277     23588.15   0.68740113 
  708000       708000    2181.9255    1500.4061    681.51937    214.10258    894.53481    24159.444   0.67114627 
  710000       710000    2186.5727    1496.4744    690.09824    213.54154    674.73511    23716.436   0.68368288 
  712000       712000    2225.8565    1549.0602    676.79636    221.04533    528.80983    23903.052   0.67834521 
  714000       714000    2194.4753    1509.7431    684.73218    215.43494   -404.99391    23462.966   0.69106869 
  716000       716000    2151.8963    1504.0648    647.83155    214.62466    -831.5663     24258.32   0.66841071 
  718000       718000    2135.8256    1502.0189    633.80675    214.33272   -236.05075    24013.653   0.67522093 
  720000       720000     2207.973    1516.2985    691.67446    216.37037    1231.6278    23493.626    0.6901668 
  722000       722000    2163.6571    1510.6269    653.03015    215.56105   -734.84597    23645.813   0.68572483 
  724000       724000    2181.9541    1509.2637    672.69041    215.36652    74.113976    23853.188   0.67976325 
  726000       726000    2193.0097    1552.9624    640.04731    221.60217    623.29627    23718.438   0.68362515 
  728000       728000    2200.0606    1459.0593    741.00126    208.20254   -1196.4743    24363.323   0.66552994 
  730000       730000    2209.3311    1531.4171      677.914    218.52773    775.47051    23694.604   0.68431281 
  732000       732000    2196.6106    1523.6904    672.92017    217.42517   -677.99985    23860.345   0.67955938 
  734000       734000    2192.5866    1505.3118    687.27484     214.8026    98.902821    24010.645   0.67530551 
  736000       736000    2251.7653     1523.832    727.93333    217.44537    735.34964    24499.697   0.66182535 
  738000       738000    2093.0556    1437.5971    655.45852    205.13996    -162.1519    24101.842   0.67275029 
  740000       740000    2218.7885     1526.413    692.37552    217.81366    513.45364    23556.363    0.6883287 
  742000       742000    2163.1441    1503.9623    659.18183    214.61003    1177.9074    23882.744   0.67892203 
  744000       744000     2211.353    1523.7788    687.57415    217.43778    -657.9881    24402.833   0.66445241 
  746000       746000    2147.9338    1498.9593    648.97448    213.89612   -670.21317    24227.661   0.66925655 
  748000       748000    2139.3199    1487.3084    652.01155    212.23358   -332.01366    23742.504   0.68293221 
  750000       750000    2155.6896    1479.1565    676.53306    211.07034   -1096.5475    23941.418   0.67725816 
  752000       752000    2175.8031     1514.783    661.02013     216.1541    773.85464    24013.407   0.67522783 
  754000       754000    2160.5019    1484.2827     676.2192    211.80182    1064.7966    24067.427   0.67371228 
  756000       756000    2196.5624    1507.0764    689.48599    215.05441   -1432.7341    24274.234    0.6679725 
  758000       758000    2161.2944    1526.2328    635.06155    217.78795     1140.878    23892.819   0.67863575 
  760000       760000    2228.2049     1534.704    693.50095    218.99676   -465.17083    23899.057   0.67845862 
  762000       762000     2177.431    1479.1631     698.2679    211.07127      659.227    24147.356   0.67148225 
  764000       764000    2187.6821    1507.9366    679.74547    215.17716   -172.71108    24109.942   0.67252426 
  766000       766000    2216.3497    1501.1736    715.17618    214.21209   -400.31487    24060.077   0.67391807 
  768000       768000    2196.5426    1534.5205    662.02204    218.97058   -285.94003    24045.422   0.67432882 
  770000       770000    2192.4546    1537.8056    654.64899    219.43935    743.99893    24188.888   0.67032931 
  772000       772000    2202.8686    1534.0266    668.84202     218.9001      339.318     24275.37   0.66794124 
  774000       774000    2184.0578    1535.0054    649.05244    219.03977    482.99589    24119.849   0.67224802 
  776000       776000    2192.9002    1541.8658    651.03444    220.01872     616.8043    24038.515   0.67452258 
  778000       778000    2137.6333    1465.8647    671.76862    209.17364    189.86353    24209.027   0.66977169 
  780000       780000    2154.4625    1488.9953    665.46719     212.4743    238.16234    23995.985   0.67571807 
  782000       782000    2161.1706    1494.0561    667.11455    213.19645    1965.2488    24222.761   0.66939193 
  784000       784000    2213.2843    1540.4404    672.84389    219.81533   -1547.7725    24024.269   0.67492254 
  786000       786000     2141.853    1480.7503    661.10272    211.29776     367.1589    24244.502   0.66879166 
  788000       788000     2070.236    1469.6918    600.54425    209.71975   -812.20655    23693.631   0.68434089 
  790000       790000    2242.5401     1541.546    700.99409    219.97309     622.7088    24192.139   0.67023924 
  792000       792000    2181.5039    1480.6186    700.88536    211.27897   -77.273911    24361.629   0.66557621 
  794000       794000    2191.9086    1497.7305    694.17812    213.72078   -864.89496    24323.497   0.66661966 
  796000       796000    2253.2077    1539.3475    713.86027    219.65937   -1937.9782    24444.615   0.66331669 
  798000       798000    2145.8358    1454.5377    691.29807    207.55733   -260.49361    23970.842   0.67642685 
  800000       800000    2196.2049    1513.2945    682.91034    215.94171    4.5079294    24198.744    0.6700563 
  802000       802000    2236.1023    1496.2543    739.84796    213.51013     139.8725    24059.193   0.67394284 
  804000       804000    2196.9477    1507.4965    689.45123    215.11435   -158.82042    23653.271   0.68550862 
  806000       806000    2247.5144     1521.235    726.27941    217.07479   -1673.9921    24393.456   0.66470781 
  808000       808000    2181.4812    1495.0526    686.42858    213.33865     22.33615    24005.804    0.6754417 
  810000       810000    2218.7817    1513.2909    705.49082    215.94119   -1610.4856    24120.617   0.67222661 
  812000       812000    2201.3953    1526.1292    675.26611    217.77317    57.390902     24139.94   0.67168853 
  814000       814000    2194.3916    1512.8998    681.49175    215.88539    -196.6446     24503.95   0.66171049 
  816000       816000    2147.9983    1501.7157    646.28259    214.28945    834.59302    23895.059   0.67857211 
  818000       818000    2155.5097    1490.9312    664.57847    212.75054    406.14423    24133.321   0.67187276 
  820000       820000    2208.2888    1495.8873     712.4015    213.45776    782.70507    24114.975   0.67238389 
  822000       822000    2136.5487    1483.4881    653.06057    211.68844   -1387.1568      24040.3    0.6744725 
  824000       824000    2115.3674    1473.6613    641.70609    210.28619    909.52206    23733.779   0.68318329 
  826000       826000    2203.0294    1521.2229    681.80647    217.07306    482.18107    24186.928   0.67038364 
  828000       828000     2127.278    1467.0762    660.20181    209.34652    -1230.111    23966.188   0.67655821 
  830000       830000    2158.0075    1482.8022    675.20532    211.59056   -616.93186    24014.058   0.67520954 
  832000       832000    2156.1795    1489.3283    666.85122    212.52181    551.21348    23969.726   0.67645835 
  834000       834000     2114.842    1486.5667     628.2753    212.12775    297.30237     23782.07   0.68179603 
  836000       836000    2158.8024    1480.6594    678.14307    211.28478   -2153.3923    23876.555   0.67909802 
  838000       838000    2139.1907     1473.863    665.32773    210.31497    98.327563    24291.992    0.6674842 
  840000       840000    2136.9036    1467.6421    669.26157    209.42727   -1289.7076    23783.427   0.68175714 
  842000       842000    2201.1842    1531.8527    669.33149     218.5899   -255.43242    24581.892   0.65961241 
  844000       844000    2160.8462    1495.1152    665.73096    213.34759   -11.297201    24267.769   0.66815046 
  846000       846000    2259.6584    1541.1396    718.51884    219.91509   -727.26089    24194.778   0.67016615 
  848000       848000    2129.2397     1444.599    684.64068    206.13911    1465.0179      24429.8   0.66371894 
  850000       850000    2263.1081    1548.8408    714.26739    221.01403   -124.20265    24346.802   0.66598156 
  852000       852000    2255.4067    1540.8517    714.55497    219.87402   -39.577224    24445.639   0.66328889 
  854000       854000     2203.391    1538.0447     665.3463    219.47347    354.98068    24175.565   0.67069874 
  856000       856000    2148.4206    1521.0292    627.39141    217.04542    7.1240383    23871.113   0.67925283 
  858000       858000    2193.2946    1496.9628    696.33179    213.61123    412.63521    23942.261   0.67723433 
  860000       860000    2213.5489    1516.6603    696.88853      216.422    59.491475    24318.073   0.66676833 
  862000       862000    2221.5893    1551.4373    670.15204    221.38454    583.49291    24284.814   0.66768149 
  864000       864000     2170.494     1493.614    676.88003    213.13337   -589.39405    24194.265   0.67018035 
  866000       866000    2188.7003    1511.5467    677.15364    215.69229    180.89511    23988.216   0.67593692 
  868000       868000    2217.0257    1531.7812     685.2445    218.57969    314.20867    24131.472   0.67192424 
  870000       870000    2175.4153    1481.1443    694.27105    211.35398    373.16884    23954.354   0.67689243 
  872000       872000    2187.1655    1508.4602    678.70529    215.25187    326.92513    23897.975   0.67848931 
  874000       874000     2217.613    1506.1838    711.42925    214.92703    1423.3201    24068.651   0.67367801 
  876000       876000    2163.0929    1502.7235    660.36932    214.43326   -156.86113    24223.575   0.66936945 
  878000       878000    2195.3133    1474.4895    720.82381    210.40437   -511.98738    24132.532   0.67189473 
  880000       880000    2157.2662    1481.3004    675.96581    211.37627    154.35161    24524.927    0.6611445 
  882000       882000    2201.1842    1509.0618    692.12245    215.33771   -1270.9126    24405.949   0.66436757 
  884000       884000    2170.0499    1493.2064    676.84341    213.07521   -671.94273    23987.106   0.67596819 
  886000       886000    2207.9421    1522.1984    685.74368    217.21226    350.87933    24353.507    0.6657982 
  888000       888000    2112.8854    1494.0833    618.80213    213.20034    1453.1252    23864.617   0.67943771 
  890000       890000    2235.8647    1513.2727    722.59205    215.93859   -527.16078    24499.458   0.66183183 
  892000       892000    2158.8137    1496.6412    662.17248    213.56534    124.09946    24271.718   0.66804174 
  894000       894000    2199.1463     1544.127    655.01931    220.34139    136.96747    24007.761   0.67538662 
  896000       896000    2187.6031     1534.467     653.1361    218.96295    855.17998    24099.435   0.67281748 
  898000       898000     2210.896    1496.5976    714.29837    213.55912    1530.3006    24020.205   0.67503674 
  900000       900000     2165.474    1501.8634    663.61059    214.31053   -2.0463677    24356.122   0.66572672 
  902000       902000    2188.2159    1493.7158    694.50013    213.14789   -235.68913    24041.558    0.6744372 
  904000       904000    2230.1852     1513.177    717.00829    215.92493   -350.95587     23943.91    0.6771877 
  906000       906000    2182.8389    1511.6671    671.17182    215.70948     -638.696    23936.337   0.67740193 
  908000       908000    2209.3624    1513.4181    695.94429    215.95934    93.432654    23960.764   0.67671135 
  910000       910000    2294.8121    1578.6113    716.20076    225.26218    622.65817    24243.219   0.66882705 
  912000       912000    2222.1893    1572.6216    649.56773    224.40746   -312.54812    23759.401   0.68244652 
  914000       914000    2175.5581    1486.7505    688.80758    212.15397    419.97613    24096.161   0.67290889 
  916000       916000    2153.3472    1517.0967    636.25048    216.48427   -168.36195    23692.292   0.68437957 
  918000       918000    2198.9116    1506.4797    692.43194    214.96926    506.64089    24087.211   0.67315892 
  920000       920000    2232.0465     1546.668    685.37842    220.70399    1328.0906    23902.609   0.67835779 
  922000       922000    2130.1141    1472.6171      657.497    210.13719   -232.67989    24231.991   0.66913698 
  924000       924000    2160.1164    1492.7078    667.40853    213.00406   -51.121546    23776.826   0.68194641 
  926000       926000    2154.7423    1464.4868     690.2555    208.97702    567.42379    23919.429   0.67788078 
  928000       928000    2152.4763    1502.8227    649.65354    214.44742   -1492.5018    23906.994   0.67823335 
  930000       930000    2153.5125    1490.9816    662.53089    212.75774    67.952375    24332.297   0.66637855 
  932000       932000    2240.8052    1502.3534    738.45181    214.38045    746.23527    23951.961   0.67696007 
  934000       934000    2247.3571    1538.1051    709.25207    219.48208    61.839879    24461.109   0.66286942 
  936000       936000    2150.0003    1479.8683    670.13199    211.17191    945.12363    23963.675   0.67662915 
  938000       938000    2206.1891     1500.276    705.91319      214.084   -631.87139     23939.04   0.67732546 
  940000       940000     2236.859    1518.9979    717.86116    216.75556   -1507.3037    24225.064   0.66932831 
  942000       942000    2200.1634    1519.4468    680.71659    216.81962   -1257.9052    24359.084   0.66564577 
  944000       944000    2227.7914    1552.9788    674.81267    221.60451    997.22308     24039.33   0.67449969 
  946000       946000    2228.7425    1503.3294    725.41316    214.51971   -375.35495    24632.963   0.65824486 
  948000       948000    2216.0538    1519.3055     696.7483    216.79945    646.58414    23934.871   0.67744344 
  950000       950000    2159.6923    1467.5728    692.11948    209.41738    1706.3754    24039.437   0.67449669 
  952000       952000    2190.2876     1503.082     687.2056    214.48442   -336.65449    24309.165   0.66701266 
  954000       954000    2185.2965    1503.1024    682.19405    214.48733    196.70347     23937.48   0.67736959 
  956000       956000    2225.0178    1538.2967    686.72112    219.50943    1108.0017    24022.098   0.67498355 
  958000       958000    2149.8079    1492.9504    656.85749    213.03867   -285.42753    24127.711   0.67202898 
  960000       960000    2275.7904    1525.6366    750.15379    217.70288     136.5051    23728.914   0.68332335 
  962000       962000    2145.8666    1508.6823    637.18423    215.28356   -900.44924    24209.437   0.66976034 
  964000       964000    2167.7406    1477.8468    689.89374    210.88345   -780.23774    24197.531   0.67008989 
  966000       966000    2244.9919    1504.3658    740.62613     214.6676   -854.40625    24316.356   0.66681542 
  968000       968000     2170.518    1466.7897    703.72833    209.30563    1306.2972    24233.113   0.66910598 
  970000       970000    2253.7681    1568.5459    685.22222    223.82587   -85.282667    24323.194   0.66662795 
  972000       972000    2146.4812    1474.5355    671.94569    210.41093     375.9573    23963.976   0.67662065 
  974000       974000    2223.4037    1534.3509    689.05287    218.94637    49.845845    24431.839   0.66366356 
  976000       976000     2206.545    1503.0394     703.5056    214.47834   -876.63361    24192.124   0.67023965 
  978000       978000    2253.3597    1533.3904    719.96923    218.80932   -786.57272     24440.87   0.66341832 
  980000       980000    2154.5176    1523.2775    631.24002    217.36625     -18.1732    23961.801   0.67668208 
  982000       982000    2185.9149    1491.0549    694.86001    212.76819      747.461    24171.984   0.67079809 
  984000       984000    2158.6008    1537.8991    620.70169     219.4527    2490.4252    23181.118   0.69947105 
  986000       986000    2233.6452    1544.9164     688.7288    220.45403    484.25247    24157.397   0.67120315 
  988000       988000    2157.0267    1463.5061    693.52058    208.83708   -758.68564    24300.559    0.6672489 
  990000       990000    2231.8396    1523.6702    708.16946    217.42227    480.39193    24214.979   0.66960707 
  992000       992000    2138.2304    1487.1016     651.1288    212.20407    1110.4348    24067.605    0.6737073 
  994000       994000    2167.5617    1503.9397    663.62197    214.60681    234.77276    23673.807   0.68491396 
  996000       996000    2237.8581    1530.0527    707.80546    218.33303    86.664375    23954.306   0.67689379 
  998000       998000    2184.2995     1518.803    665.49655    216.72775   -501.20222    24398.104   0.66458119 
 1000000      1000000    2130.2422    1472.2493    657.99288    210.08471    2025.4882    24023.234   0.67495164 
 1002000      1002000     2172.021    1483.4385    688.58251    211.68136    1291.9043    23794.161   0.68144959 
 1004000      1004000    2178.2241    1490.2126    688.01156      212.648   -1573.6714     24004.01   0.67549219 
 1006000      1006000    2200.0695    1529.5674    670.50209    218.26378    408.99677    23876.772   0.67909182 
 1008000      1008000    2233.0871     1515.177    717.91007    216.21033   -960.76119    23884.783   0.67886406 
 1010000      1010000     2180.126    1513.0898    667.03626    215.91249    -626.9889    24372.826   0.66527044 
 1012000      1012000    2226.2494    1542.3141    683.93536    220.08269   -616.52892    24066.855   0.67372828 
 1014000      1014000    2217.3344     1512.276     705.0584    215.79637   -440.05253    24292.374   0.66747371 
 1016000      1016000     2225.447    1507.6644    717.78258    215.13831    980.88427    24384.366   0.66495561 
 1018000      1018000    2173.7153    1498.8304     674.8849    213.87773    822.77254    24102.861   0.67272183 
 1020000      1020000    2166.6462    1475.8567    690.78949    210.59946    20.123123    23962.939   0.67664994 
 1022000      1022000    2219.6831    1530.5261    689.15699    218.40059    291.51582    23919.977   0.67786523 
 1024000      1024000    2160.6294    1482.9594    677.66997    211.61299    1435.8408    23961.223   0.67669839 
 1026000      1026000    2255.9048    1515.8114    740.09346    216.30085    146.31789    24434.238   0.66359838 
 1028000      1028000    2117.6841    1457.4617    660.22236    207.97457    1.6759384    23894.804   0.67857937 
 1030000      1030000     2249.694    1555.8433    693.85069    222.01326    321.45034    23918.956   0.67789417 
 1032000      1032000     2139.794     1494.837    644.95693    213.30789   -197.94604    23715.083   0.68372188 
 1034000      1034000      2097.42    1490.8753    606.54469    212.74256    321.51801    23635.997    0.6860096 
 1036000      1036000    2177.8709    1505.5768    672.29413    214.84041    15.541449    24103.994    0.6726902 
 1038000      1038000    2179.8371    1524.4734    655.36364     217.5369    657.80345    24493.691   0.66198764 
 1040000      1040000    2189.8717    1529.1347    660.73695    218.20205    1573.9464    23911.475   0.67810626 
 1042000      1042000    2175.8571    1491.9828    683.87424    212.90061    828.32982    24417.851   0.66404374 
 1044000      1044000    2190.1871    1491.3867    698.80045    212.81553   -760.68448    23955.771    0.6768524 
 1046000      1046000    2173.5606    1514.9179    658.64272    216.17336   -514.33412    23956.163   0.67684131 
 1048000      1048000    2144.2581    1493.5566    650.70147    213.12518    1080.7312    24031.829   0.67471022 
 1050000      1050000    2216.6243    1527.7739    688.85045    218.00786   -196.02161     24579.29   0.65968224 
 1052000      1052000    2180.8795    1504.1956    676.68388    214.64332    40.156618    24171.497   0.67081163 
 1054000      1054000    2217.4092    1511.7247    705.68448     215.7177    1978.0994    24324.363   0.66659591 
 1056000      1056000    2187.2902    1529.1519    658.13833     218.2045    1381.3072    23777.758   0.68191968 
 1058000      1058000    2149.5875    1506.4505    643.13693    214.96509   -279.69392    24010.654   0.67530525 
 1060000      1060000    2165.6281    1503.8209    661.80714    214.58986    547.27334    23967.846   0.67651139 
 1062000      1062000    2142.3896    1466.1157    676.27396    209.20945    249.99898    23908.873   0.67818006 
 1064000      1064000    2181.5891    1524.5826    657.00653    217.55247   -102.59254    24072.228   0.67357791 
 1066000      1066000    2180.6605    1482.9073    697.75314    211.60556    1160.6815    23812.898   0.68091338 
 1068000      1068000    2190.8108     1487.695    703.11579    212.28875   -383.57222    23920.572   0.67784839 
 1070000      1070000    2235.7973    1522.9682    712.82909     217.3221    758.86983    23563.648    0.6881159 
 1072000      1072000    2130.1686    1464.7923    665.37635    209.02061    18.533537    23951.389   0.67697622 
 1074000      1074000    2238.4519    1501.0681    737.38373    214.19704    1400.9604    24101.836   0.67275045 
 1076000      1076000    2151.2422    1511.3695    639.87268    215.66702   -1477.6106    24223.917      0.66936 
 1078000      1078000    2207.2838    1505.6624    701.62142    214.85263   -783.63725    23769.009   0.68217067 
 1080000      1080000    2200.9982     1514.587    686.41124    216.12614    106.44233    23691.868   0.68439184 
 1082000      1082000    2221.6601     1500.257    721.40309     214.0813    535.69922    24342.583   0.66609696 
 1084000      1084000    2179.3833    1502.8251    676.55823    214.44776   -1191.8629    24438.549   0.66348133 
 1086000      1086000    2221.3736     1532.483    688.89052    218.67984   -729.05271     24026.92   0.67484809 
 1088000      1088000    2201.3558    1530.0023    671.35354    218.32584   -1155.7784    23681.085   0.68470346 
 1090000      1090000    2156.4133    1503.3793    653.03399    214.52684     1988.639    23885.073   0.67885582 
 1092000      1092000    2182.5891    1487.6584    694.93064    212.28353   -859.77409    23950.438    0.6770031 
 1094000      1094000    2163.3682    1469.5586    693.80962    209.70075    344.09567    24333.825   0.66633672 
 1096000      1096000    2207.3647    1519.2431    688.12158    216.79055    610.24571    24026.266   0.67486644 
 1098000      1098000     2118.062    1483.6987    634.36331    211.71849    1021.3976    24177.397   0.67064791 
 1100000      1100000     2210.035    1489.4463    720.58874    212.53864    297.29183    24158.683   0.67116743 
 1102000      1102000    2137.7168    1489.7746    647.94219     212.5855   -669.88325    23843.051   0.68005226 
 1104000      1104000    2200.1941    1521.2314    678.96272    217.07427   -311.18923    23640.675   0.68587386 
 1106000      1106000     2144.058    1487.3165    656.74155    212.23473   -94.450488    23562.789   0.68814099 
 1108000      1108000    2146.1291    1479.3848    666.74437     211.1029   -750.11844     24061.31   0.67388354 
 1110000      1110000    2172.5403    1519.5697     652.9706    216.83716   -234.62411    23753.884   0.68260504 
 1112000      1112000    2166.6198    1493.6595    672.96023    213.13986   -1132.5717    24094.351   0.67295943 
 1114000      1114000    2166.4126    1525.7028     640.7098    217.71232   -769.62877    23952.291   0.67695073 
 1116000      1116000    2107.0602    1488.7155    618.34471    212.43437   -722.46172    23706.607   0.68396632 
 1118000      1118000    2159.9379    1497.3483    662.58956    213.66624   -1393.7714    23857.918   0.67962849 
 1120000      1120000    2187.6089    1529.1953    658.41363    218.21069   -41.082251    23879.594   0.67901157 
 1122000      1122000    2125.5968    1490.4214    635.17545    212.67779   -401.85711    23750.663    0.6826976 
 1124000      1124000    2187.0007    1511.6672    675.33357    215.70949   -63.264471      23953.9   0.67690527 
 1126000      1126000    2185.4981    1542.5616    642.93654    220.11801    859.47803    23744.369   0.68287857 
 1128000      1128000    2156.4602    1487.6607    668.79954    212.28385   -2284.5475    23605.192   0.68690484 
 1130000      1130000    2187.6602    1507.3149    680.34526    215.08844    346.86342    23509.879   0.68968969 
 1132000      1132000    2148.7018    1513.7942    634.90766      216.013    175.90916    23763.347   0.68233321 
 1134000      1134000    2117.4047    1471.6876    645.71703    210.00455   -1179.2412    24048.542   0.67424133 
 1136000      1136000    2226.5619    1503.3905    723.17141    214.52843    1204.8759     23742.94   0.68291967 
 1138000      1138000    2156.9595    1506.4016    650.55795     214.9581   -2049.8842    23899.546   0.67844472 
 1140000      1140000    2116.3785    1478.2948    638.08375    210.94737   -1298.1526    23908.526   0.67818992 
 1142000      1142000    2206.9599    1526.1201    680.83982    217.77187    1827.0074    23643.885   0.68578073 
 1144000      1144000     2170.879    1522.8167    648.06221    217.30049   -2547.7029    24019.749   0.67504955 
 1146000      1146000    2239.6622    1579.8234    659.83874    225.43514    602.95608    23999.144   0.67562915 
 1148000      1148000    2203.6876    1520.9106    682.77692     217.0285   -484.28606    24161.688   0.67108395 
 1150000      1150000     2176.978    1498.0869    678.89108    213.77163    1399.6925    24097.867   0.67286125 
 1152000      1152000    2189.5777     1511.543     678.0346    215.69178    1223.3273      24098.9   0.67283241 
 1154000      1154000    2159.8264    1515.9028    643.92361     216.3139   -1511.2381    23646.422   0.68570716 
 1156000      1156000    2088.7407    1445.3498    643.39086    206.24624    56.378522    24123.333   0.67215094 
 1158000      1158000    2192.6341     1499.914    692.72009    214.03235    2155.0129    24120.462   0.67223095 
 1160000      1160000    2186.2953      1477.39    708.90529    210.81826    487.01626    24341.219   0.66613432 
 1162000      1162000    2210.4877    1539.6515    670.83625    219.70275   -362.54343    23837.534   0.68020966 
 1164000      1164000    2188.6027    1523.4144    665.18828    217.38577    99.516003    24602.348   0.65906396 
 1166000      1166000    2183.8041     1502.063    681.74103    214.33901   -1131.8503    24213.882   0.66963739 
 1168000      1168000    2151.6596    1489.2663    662.39335    212.51296     195.9575    24131.314   0.67192863 
 1170000      1170000    2256.1043    1549.2228    706.88151    221.06855     874.4157    24145.795   0.67152567 
 1172000      1172000    2181.9501    1511.9839    669.96619    215.75468   -218.52994    24146.092   0.67151741 
 1174000      1174000     2190.442    1550.8834    639.55865     221.3055   -390.13774    24117.905   0.67230221 
 1176000      1176000    2251.2251    1539.8225    711.40267    219.72715    270.73805    24241.091   0.66888578 
 1178000      1178000    2217.2749    1500.2924    716.98253    214.08635   -219.81586    24287.375    0.6676111 
 1180000      1180000    2193.3796    1482.2515    711.12806    211.51198   -810.78947     24904.03   0.65108019 
 1182000      1182000    2226.3133    1535.5977    690.71559    219.12429    809.97945    24304.994   0.66712714 
 1184000      1184000    2201.4154    1503.1954    698.22001    214.50059    -632.4557    24463.969   0.66279192 
 1186000      1186000    2224.2647    1501.8978    722.36687    214.31544    430.99755    24530.878   0.66098414 
 1188000      1188000    2192.7475    1487.9988    704.74867     212.3321   -879.68383    24844.948   0.65262849 
 1190000      1190000    2152.0744    1512.8936    639.18078    215.88449    202.99466    24336.438   0.66626515 
 1192000      1192000    2205.9821    1505.1782    700.80385    214.78354    1109.1569    24656.988   0.65760346 
 1194000      1194000    2250.5197    1531.8127    718.70705    218.58418   -12.626018    24447.339   0.66324277 
 1196000      1196000    2136.0788    1451.4277    684.65104    207.11354    -219.9691    24462.068   0.66284343 
 1198000      1198000    2236.0409    1523.1583    712.88258    217.34923   -960.16172    24301.324   0.66722788 
 1200000      1200000    2125.8153    1503.1816    622.63371    214.49862    672.34624    24088.822    0.6731139 
 1202000      1202000    2211.8535    1495.9924    715.86115    213.47275     936.7222    24513.445   0.66145419 
 1204000      1204000    2161.9313    1517.5359    644.39537    216.54694   -2100.9668     23916.62   0.67796037 
 1206000      1206000    2173.0067    1486.1663    686.84035    212.07061   -576.20522    24344.195   0.66605287 
 1208000      1208000    2168.5625    1499.0023    669.56014    213.90226   -783.62686    24226.903   0.66927748 
 1210000      1210000    2197.8027    1494.3691    703.43367    213.24111   -2041.3306    23970.659   0.67643201 
 1212000      1212000    2150.3554    1499.8881    650.46726    214.02866   -93.175522    24037.048   0.67456373 
 1214000      1214000    2172.5699    1474.2062    698.36372    210.36394   -151.96064    24428.596   0.66375166 
 1216000      1216000    2176.3642    1492.4241    683.94008    212.96357    167.77678    23750.875   0.68269151 
 1218000      1218000    2171.7291    1494.4882    677.24091    213.25811   -433.48331     23781.23   0.68182013 
 1220000      1220000    2123.4351    1514.8813     608.5538    216.16814    2255.8194    23585.913   0.68746634 
 1222000      1222000    2206.6815    1515.6987    690.98279    216.28478   -544.70821    23804.984   0.68113977 
 1224000      1224000    2188.2186    1499.9116    688.30694    214.03202   -57.395267     24137.56   0.67175476 
 1226000      1226000    2220.5771    1490.9211    729.65601     212.7491   -810.30834    23658.734   0.68535032 
 1228000      1228000    2131.9468    1475.3902    656.55658     210.5329   -429.64907    23803.414   0.68118469 
 1230000      1230000    2217.8508    1564.2886    653.56214    223.21838    1505.5966    23939.067   0.67732469 
 1232000      1232000    2208.2392    1490.8645    717.37473    212.74102   -180.49478    24104.037   0.67268901 
 1234000      1234000    2168.8172    1520.5705    648.24666    216.97997   -378.40557    23584.166   0.68751724 
 1236000      1236000    2158.4099     1497.976     660.4339    213.75581   -350.57617    23925.939   0.67769633 
 1238000      1238000    2126.7107    1486.9778     639.7329     212.1864     263.0411    23572.981   0.68784346 
 1240000      1240000    2211.2412    1543.9383    667.30285    220.31446    477.02461    23838.471   0.68018293 
 1242000      1242000    2155.3308    1496.7815    658.54928    213.58535   -250.46022    23592.552   0.68727286 
 1244000      1244000    2225.8648    1558.3214    667.54336    222.36688   -580.69387    24136.051   0.67179676 
 1246000      1246000    2185.9521    1507.2364    678.71571    215.07723   -372.02902    24245.415   0.66876649 
 1248000      1248000    2172.3577    1506.9105    665.44723    215.03073   -693.48388     23998.48   0.67564784 
 1250000      1250000    2261.7214    1526.8245    734.89687    217.87238   -97.517621    24431.425   0.66367478 
 1252000      1252000    2143.5652    1487.2533    656.31193    212.22572    875.32317    24050.552   0.67418497 
 1254000      1254000    2213.2309    1505.8252    707.40572    214.87586    1090.6034    24287.696   0.66760227 
 1256000      1256000    2220.5887    1528.4554    692.13324    218.10512    282.94017    24399.816   0.66453455 
 1258000      1258000    2077.5271    1431.7916     645.7355    204.31153    494.83091    23853.436   0.67975619 
 1260000      1260000    2188.6698    1487.9504    700.71945    212.32519    518.35474    24063.714   0.67381623 
 1262000      1262000    2224.9316    1517.2015    707.73016    216.49922   -366.73586    24102.213   0.67273993 
 1264000      1264000     2226.756    1538.8325    687.92354    219.58588   -530.16243    24001.936   0.67555054 
 1266000      1266000    2206.3385    1508.7092     697.6293     215.2874   -233.29881    23435.303    0.6918844 
 1268000      1268000    2205.9539    1492.4171    713.53685    212.96257   -1124.9332    24109.705   0.67253086 
 1270000      1270000    2242.0362    1538.8253    703.21089    219.58486   -684.35931    24131.782   0.67191562 
 1272000      1272000    2159.9732    1454.5796    705.39357     207.5633    658.42538    24262.904   0.66828443 
 1274000      1274000    2183.0094    1504.5278    678.48156    214.69073    107.96437    23823.132   0.68062089 
 1276000      1276000    2237.1933    1537.5964    699.59693    219.40949    87.572758    23860.353   0.67955913 
 1278000      1278000    2232.3286    1511.0672    721.26142    215.62387   -328.93135     24664.06   0.65741492 
 1280000      1280000    2236.7952     1527.493    709.30223    217.96778   -972.49131    24296.188   0.66736894 
 1282000      1282000    2198.0902    1528.9348    669.15546    218.17351   -311.51691    24195.487   0.67014651 
 1284000      1284000    2185.4159    1529.5934    655.82245     218.2675   -719.93581    24484.015   0.66224926 
 1286000      1286000    2138.6631    1475.5154    663.14776    210.55076    462.02979    24499.802   0.66182253 
 1288000      1288000    2233.0625    1520.9429    712.11958     217.0331   -778.03312    24023.485   0.67494457 
 1290000      1290000    2140.2858    1487.3339    652.95197    212.23721    665.90435    24272.229   0.66802768 
 1292000      1292000    2207.7062    1531.4959    676.21033    218.53898    689.20175    24332.213   0.66638085 
 1294000      1294000     2162.795     1515.664    647.13108    216.27982    1020.0649    24440.287   0.66343414 
 1296000      1296000     2181.752    1502.5738    679.17821     214.4119    1061.1929    23988.873    0.6759184 
 1298000      1298000    2202.5728    1509.4023     693.1705    215.38629   -412.51738    23992.463   0.67581727 
 1300000      1300000    2210.6981    1505.6219    705.07621    214.84686    365.18702    24276.906     0.667899 
 1302000      1302000    2209.8996    1534.5039    675.39561    218.96822    1345.5339    24024.696   0.67491056 
 1304000      1304000    2235.9035    1525.2575    710.64598    217.64879    1322.6326    23818.044   0.68076626 
 1306000      1306000    2104.7869    1469.0195    635.76737    209.62382    861.71859    24036.324   0.67458406 
 1308000      1308000    2159.5206    1505.3804    654.14026    214.81239    440.90106    23692.083   0.68438562 
 1310000      1310000    2174.6461    1494.5915    680.05455    213.27285   -1109.0709    24102.874   0.67272146 
 1312000      1312000    2193.3666    1521.2688    672.09785     217.0796    415.91337    23609.953   0.68676633 
 1314000      1314000    2207.3429     1530.854    676.48881    218.44739    85.484631    23900.312     0.678423 
 1316000      1316000    2169.4634    1501.1575    668.30586     214.2098   -159.35688     23788.83    0.6816023 
 1318000      1318000    2261.6381    1544.0301    717.60796    220.32757   -1087.7456    24062.267   0.67385673 
 1320000      1320000    2213.5757     1521.242    692.33374    217.07578    348.83711    23804.392    0.6811567 
 1322000      1322000    2205.7829    1512.7366    693.04631    215.86209    -186.1693    23917.008    0.6779494 
 1324000      1324000    2187.2983    1525.4584    661.83986    217.67745   -498.67276    24140.858   0.67166298 
 1326000      1326000    2220.6098    1538.8865     681.7233    219.59359    556.87302    23891.015   0.67868697 
 1328000      1328000    2200.4141    1492.5157    707.89831    212.97665    608.49052    24074.335   0.67351894 
 1330000      1330000    2157.8972    1495.2305    662.66675    213.36404   -566.32714     23980.56   0.67615273 
 1332000      1332000    2212.5246    1498.3505    714.17408    213.80925    466.17356    24043.443   0.67438433 
 1334000      1334000    2160.5669    1521.1168    639.45005    217.05792   -1334.4511    24117.212   0.67232153 
 1336000      1336000    2198.5749    1501.6542     696.9207    214.28068   -673.66608    23642.639   0.68581688 
 1338000      1338000    2162.1962    1499.5573    662.63889    213.98146   -119.01783    24386.385   0.66490056 
 1340000      1340000    2190.0314    1477.2986    712.73281    210.80522    747.77649    24198.252   0.67006993 
 1342000      1342000    2153.8623    1468.9937    684.86855    209.62014    -225.2156    23935.735   0.67741898 
 1344000      1344000    2148.7134     1485.731    662.98244    212.00849   -638.51721     24130.38   0.67195465 
 1346000      1346000    2228.2882    1521.3156    706.97254    217.08629   -1252.4621    24263.391   0.66827101 
 1348000      1348000    2160.4352    1494.7291    665.70611    213.29249     519.3798    24308.717   0.66702496 
 1350000      1350000    2222.2885    1546.4293    675.85918    220.66993   -72.781993    23863.989    0.6794556 
 1352000      1352000    2147.4779    1465.3277    682.15028    209.09701    706.76594    24259.336   0.66838273 
 1354000      1354000    2171.5679    1460.0878    711.48008     208.3493    669.82827    24356.254   0.66572309 
 1356000      1356000    2196.5881    1484.6111    711.97692    211.84869    967.97501    24574.369   0.65981434 
 1358000      1358000    2230.8045    1533.6955      697.109    218.85286   -577.39679    24875.335   0.65183126 
[...]
 4682000      4682000    2138.8885    1489.6415    649.24693    212.56651    -431.3193    24141.106    0.6716561 
 4684000      4684000    2153.1123    1480.8066    672.30563     211.3058   -203.31812    23895.403   0.67856235 
 4686000      4686000    2227.7993    1524.1743    703.62496    217.49422    1874.9534    24523.813   0.66117453 
 4688000      4688000    2194.6152    1491.9093    702.70592    212.89011   -602.81772    24281.953   0.66776016 
 4690000      4690000     2170.236    1454.7375     715.4985    207.58582   -737.39878    23731.081   0.68326095 
 4692000      4692000    2208.7409    1510.8348    697.90609    215.59071   -933.07157    24195.796   0.67013793 
 4694000      4694000    2292.0428    1536.4931    755.54969    219.25206    357.51396     24336.08   0.66627497 
 4696000      4696000    2218.9349    1510.3601    708.57472    215.52298    1206.5072    24038.524   0.67452232 
 4698000      4698000    2157.6477    1528.6229    629.02475    218.12901    485.10327     23856.26   0.67967572 
 4700000      4700000    2197.1371    1531.3135    665.82363    218.51295    613.77761    23951.717   0.67696696 
 4702000      4702000    2173.9626    1492.4348    681.52772     212.9651   -1386.5927    24161.866     0.671079 
 4704000      4704000    2134.6198    1480.5662    654.05364    211.27149   -128.15756     23746.95   0.68280435 
 4706000      4706000    2154.6148    1486.4189    668.19595    212.10665    27.196574    24233.518   0.66909481 
 4708000      4708000    2231.0274     1520.363    710.66445    216.95035    1336.8621    24128.144   0.67201691 
 4710000      4710000    2223.0134    1519.6982    703.31527    216.85548   -661.76113     24414.18   0.66414359 
 4712000      4712000    2212.0643      1520.41    691.65428    216.95706    1577.9244     24475.64   0.66247586 
 4714000      4714000    2177.4189     1489.801    687.61793    212.58926    -184.9106    24264.079   0.66825207 
 4716000      4716000    2131.4392    1481.5384    649.90085    211.41022   -992.51718     24252.05   0.66858351 
 4718000      4718000    2183.5142     1482.148    701.36626    211.49721    864.20769    24417.888   0.66404273 
 4720000      4720000     2229.544    1494.7899    734.75413    213.30116   -1200.1115    24625.017   0.65845726 
 4722000      4722000    2191.7094    1488.3974    703.31193    212.38898    182.84802    24599.748   0.65913363 
 4724000      4724000    2177.2027    1520.2771    656.92561    216.93809    174.17749     24219.31   0.66948733 
 4726000      4726000    2252.7764    1557.6584    695.11798    222.27228    75.056586    24822.433   0.65322045 
 4728000      4728000    2184.3411       1526.9    657.44105    217.88316   -1910.7828    24320.527   0.66670104 
 4730000      4730000     2147.023      1448.24    698.78296    206.65866   -361.89308    24257.469   0.66843417 
 4732000      4732000     2251.186    1530.9363    720.24973    218.45913    1003.1242    24731.568   0.65562041 
 4734000      4734000    2219.9564    1524.4409    695.51544    217.53226     415.9098    24489.166   0.66210996 
 4736000      4736000    2160.4094    1497.2749    663.13444    213.65577    360.86099    23973.307   0.67635729 
 4738000      4738000    2221.7704     1524.414    697.35643    217.52842    691.54936      24498.4    0.6618604 
 4740000      4740000     2137.302    1488.7803    648.52163    212.44362   -778.62708    24183.537   0.67047763 
 4742000      4742000    2218.5761     1551.609    666.96713    221.40904   -1075.0212     24087.14   0.67316091 
 4744000      4744000     2162.107    1507.2177     654.8893    215.07457   -506.08127    23871.058   0.67925438 
 4746000      4746000    2118.7619    1486.7504    632.01154    212.15395    943.35562    23627.922   0.68624406 
 4748000      4748000    2186.8915     1549.782    637.10949    221.14834    1330.4228    23475.372   0.69070347 
 4750000      4750000    2200.2027    1513.2575    686.94528    215.93642    641.07117    24289.791    0.6675447 
 4752000      4752000    2235.6142    1550.5232    685.09092    221.25411   -355.94001    24307.378   0.66706169 
 4754000      4754000    2152.3407     1478.023    674.31775    210.90858   -268.99733    24173.292    0.6707618 
 4756000      4756000    2267.6061    1574.5326    693.07353    224.68016    291.14513    23923.714   0.67775936 
 4758000      4758000    2177.2009     1486.906    690.29487    212.17616   -413.07752    24142.275   0.67162358 
 4760000      4760000    2178.4545    1496.0431    682.41135    213.47999    138.95691    24365.951   0.66545815 
 4762000      4762000    2165.1383    1504.6875    660.45081    214.71352    1017.1361    24337.074   0.66624777 
 4764000      4764000    2190.6967    1494.7209    695.97588    213.29131    480.23128    24040.924   0.67445498 
 4766000      4766000    2165.2852    1445.0172    720.26799    206.19877   -840.58216     24339.59    0.6661789 
 4768000      4768000    2237.8267     1493.618    744.20876    213.13393   -288.98863    24143.609   0.67158646 
 4770000      4770000    2159.3904    1499.6288    659.76152    213.99166    188.42109    24633.891   0.65822004 
 4772000      4772000     2194.896     1504.936    689.96001    214.74898   -879.19329    24251.382   0.66860193 
 4774000      4774000    2235.1348    1550.4506    684.68424    221.24375    204.60493    24199.128   0.67004567 
 4776000      4776000    2136.6273     1469.242    667.38526    209.65557    1591.3102    23925.276   0.67771511 
 4778000      4778000    2130.5534    1468.3786    662.17485    209.53236    1418.2023    24140.281   0.67167904 
 4780000      4780000    2213.4751    1477.8967    735.57834    210.89057    136.37954    24332.372   0.66637649 
 4782000      4782000    2181.2516     1514.253    666.99864    216.07848     2077.358    24016.753   0.67513377 
 4784000      4784000    2172.6874    1521.2081    651.47935    217.07094   -73.517231    24245.491   0.66876438 
 4786000      4786000    2283.7546    1548.1077     735.6469    220.90942   -179.28127    24159.965    0.6711318 
 4788000      4788000    2120.0676    1472.8643    647.20331    210.17246   -490.18468    23832.379   0.68035679 
 4790000      4790000    2210.4564    1511.8427    698.61362    215.73454    385.54124    24097.333   0.67287616 
 4792000      4792000    2113.5123    1493.8147    619.69761    213.16201    1045.7458    23939.417   0.67731479 
 4794000      4794000    2157.8319    1509.7664    648.06543    215.43826   -1274.4456    23524.326   0.68926613 
 4796000      4796000    2221.1446    1549.0152     672.1294    221.03892   -646.52687    23915.968   0.67797886 
 4798000      4798000    2227.4422    1537.3338    690.10842    219.37202    137.81001    23996.149   0.67571347 
 4800000      4800000    2183.7799    1501.9044    681.87552    214.31638    1263.1636    23931.812   0.67753002 
 4802000      4802000    2206.5065    1500.5738    705.93265    214.12651   -59.087584     24381.36   0.66503759 
 4804000      4804000    2182.9867    1503.0254    679.96125    214.47634   -129.23971    24094.115   0.67296604 
 4806000      4806000    2182.4227     1516.645    665.77769    216.41981   -795.95202    24003.137   0.67551673 
 4808000      4808000    2188.8074    1512.4075    676.39983    215.81514    -932.3854     24206.26   0.66984826 
 4810000      4810000    2113.5802    1476.8676    636.71265    210.74371   -87.895961     23832.58   0.68035107 
 4812000      4812000    2174.2587    1517.7349    656.52376    216.57534   -794.89048    24168.788   0.67088681 
 4814000      4814000    2186.4227     1489.957    696.46562    212.61153   -984.43785    24139.677   0.67169586 
 4816000      4816000    2266.2333    1543.0193    723.21395    220.18333    290.14814    24173.989   0.67074248 
 4818000      4818000    2153.5284    1493.4419    660.08649    213.10881   -989.54757    24409.182   0.66427957 
 4820000      4820000    2169.4965    1463.8827    705.61384    208.89082   -1594.2641     24392.62   0.66473061 
 4822000      4822000    2182.1158    1464.7987    717.31709    209.02152    278.40736    24129.656    0.6719748 
 4824000      4824000    2149.4501    1463.1525    686.29763    208.78662    879.29152    24131.337   0.67192799 
 4826000      4826000    2220.6962    1514.8115    705.88475    216.15817    166.60377    24178.139   0.67062733 
 4828000      4828000    2196.4128    1498.1315     698.2813      213.778   -27.731874    23737.823   0.68306689 
 4830000      4830000    2182.5764    1486.5475    696.02895      212.125     789.4713    24333.322   0.66635048 
 4832000      4832000    2151.8047    1494.1194    657.68535    213.20549   -189.85151    23843.863   0.68002912 
 4834000      4834000    2187.0559    1523.9971    663.05879    217.46892   -195.83728    24027.787   0.67482374 
 4836000      4836000    2235.5691    1580.2596    655.30945    225.49739   -193.32837    23909.778   0.67815438 
 4838000      4838000    2196.8028    1505.9915    690.81136    214.89959   -819.80046    24438.602    0.6634799 
 4840000      4840000    2220.5717    1530.9748    689.59696    218.46461    49.347686    24174.224   0.67073594 
 4842000      4842000    2177.1001    1535.3686     641.7315     219.0916    123.87765    24128.867   0.67199679 
 4844000      4844000     2197.881    1535.2879    662.59309    219.08008   -1704.7668     23743.88   0.68289265 
 4846000      4846000    2153.7235    1506.1196    647.60395    214.91787   -368.89714    24216.939   0.66955286 
 4848000      4848000    2179.8459    1518.1251    661.72082    216.63101   -2878.8475    23855.805   0.67968868 
 4850000      4850000    2136.7657    1509.4361    627.32958    215.39113   -376.38715    23737.577   0.68307397 
 4852000      4852000    2183.6212    1498.7777    684.84358     213.8702    380.21752    24117.664   0.67230892 
 4854000      4854000    2191.7158    1519.2587    672.45713    216.79277   -636.93239    24267.204   0.66816602 
 4856000      4856000     2220.785    1500.3014    720.48356    214.08764   -319.48233    24309.157    0.6670129 
 4858000      4858000    2197.8448    1518.6076    679.23724    216.69986   -1058.5402     24200.68    0.6700027 
 4860000      4860000     2224.662    1485.6471    739.01496    211.99652    1821.2085    25025.498   0.64792002 
 4862000      4862000    2153.3511    1478.3736    674.97752    210.95861   -405.73309    24399.463   0.66454418 
 4864000      4864000    2153.5121    1507.3242    646.18789    215.08977   -1024.0732    24609.312   0.65887746 
 4866000      4866000    2181.9419    1481.8937    700.04815    211.46093   -1207.9019    23952.015   0.67695852 
 4868000      4868000    2214.6887    1543.1514    671.53723    220.20218   -756.28103    23862.013   0.67951186 
 4870000      4870000    2124.5328    1475.3289    649.20385    210.52415     529.4373    23481.477   0.69052389 
 4872000      4872000    2223.5997    1524.4188    699.18095    217.52909   -1199.3876    23711.168   0.68383477 
 4874000      4874000    2155.4502    1530.8457    624.60448    218.44619    537.11913    23689.612   0.68445701 
 4876000      4876000    2176.9278    1479.6673    697.26045    211.14323   -610.55229    24125.954   0.67207792 
 4878000      4878000    2183.1476     1525.888    657.25956    217.73875   -86.749855    23938.588   0.67733823 
 4880000      4880000    2163.8874     1510.153    653.73438    215.49342   -699.02185    24040.314   0.67447209 
 4882000      4882000    2203.1707    1518.9158    684.25493    216.74384    1237.1556    23683.508   0.68463342 
 4884000      4884000    2252.4918    1568.4223    684.06942    223.80825    20.575827    24153.087   0.67132292 
 4886000      4886000    2185.8437    1495.5692    690.27454    213.41236   -537.10983    23797.042   0.68136709 
 4888000      4888000    2199.4339    1505.4046    694.02922    214.81585   -1227.6643    24024.538   0.67491501 
 4890000      4890000    2167.7872    1502.8398    664.94743    214.44985    435.59778    23660.649   0.68529485 
 4892000      4892000    2167.4019    1512.3256    655.07625    215.80345    467.17273    23832.251   0.68036044 
 4894000      4894000    2203.2291    1539.2403    663.98881    219.64408   -344.91146    23829.785   0.68043087 
 4896000      4896000    2123.2481    1493.0252    630.22294    213.04934   -422.14374    23896.307   0.67853668 
 4898000      4898000    2113.1285     1511.426    601.70253    215.67507   -196.28325    23533.282   0.68900381 
 4900000      4900000    2201.1638    1510.6692    690.49464    215.56708    729.79663    24079.286   0.67338048 
 4902000      4902000     2157.447    1455.5503    701.89675    207.70181    -366.8168    24360.668   0.66560247 
 4904000      4904000    2184.6849    1519.3766    665.30827     216.8096     410.0465    24266.261   0.66819198 
 4906000      4906000    2239.3923    1531.7123    707.68001    218.56986    263.06521     23911.23   0.67811321 
 4908000      4908000    2195.2308    1512.5984    682.63243    215.84237    477.49535    24401.942   0.66447667 
 4910000      4910000    2159.1402    1480.0678    679.07244    211.20037   -583.47255    24128.217   0.67201489 
 4912000      4912000    2196.9849    1488.8501     708.1348    212.45357    1578.8408    24439.688    0.6634504 
 4914000      4914000    2177.6143    1490.3768    687.23752    212.67143    1619.4945    24320.256   0.66670847 
 4916000      4916000     2188.044    1532.9446    655.09937    218.74571    427.68642    23914.429    0.6780225 
 4918000      4918000    2237.6229    1497.2308    740.39207    213.64947    514.63244    24488.425   0.66213001 
 4920000      4920000    2126.3123    1473.3873      652.925    210.24709   -494.27743    24313.477   0.66689436 
 4922000      4922000    2144.2791    1485.0343    659.24484    211.90908   -1971.7341    24276.288   0.66791598 
 4924000      4924000    2204.5606    1495.2507    709.30986    213.36692    510.92945    23956.969   0.67681856 
 4926000      4926000    2167.4142    1514.0573    653.35686    216.05055   -1157.0635    24105.499   0.67264822 
 4928000      4928000    2210.0864    1540.0196    670.06673    219.75528   -60.463202    23829.808   0.68043018 
 4930000      4930000    2143.7985    1498.2558    645.54268    213.79574    1126.2639    23778.328   0.68190332 
 4932000      4932000    2235.9469    1564.5887    671.35819    223.26121    1129.4419    23618.183   0.68652702 
 4934000      4934000    2173.6977    1523.2824    650.41524    217.36695   -1057.9806    23739.521   0.68301803 
 4936000      4936000    2172.7838    1500.7799    672.00383    214.15592    1305.0868    23845.282   0.67998864 
 4938000      4938000    2162.8667    1485.8352    677.03152    212.02336   -335.35047    23738.783   0.68303927 
 4940000      4940000    2209.4256    1553.9609    655.46464    221.74466    265.97013    23581.069   0.68760756 
 4942000      4942000    2149.0364    1501.7906    647.24576    214.30014    594.01825    23676.509    0.6848358 
 4944000      4944000    2237.4224     1538.994     698.4284    219.60894   -142.41632    23910.853   0.67812389 
 4946000      4946000    2120.5434    1460.9964    659.54694    208.47895   -726.76563    23558.422   0.68826854 
 4948000      4948000    2145.2488    1459.5744     685.6744    208.27603   -1644.8289    23975.379   0.67629884 
 4950000      4950000    2194.5357    1520.6468    673.88888    216.99086    1021.9011    23709.056   0.68389568 
 4952000      4952000    2240.2105    1540.2635    699.94705    219.79008   -225.01169    24109.131   0.67254688 
 4954000      4954000    2154.1189    1490.0893    664.02964     212.6304    215.55563    23860.007   0.67956901 
 4956000      4956000    2208.4488    1509.7227    698.72613    215.43202   -623.12774    24350.826   0.66587148 
 4958000      4958000    2213.2722    1514.5484    698.72383    216.12062   -1054.2548    24079.712   0.67336855 
 4960000      4960000    2172.5165    1508.3229    664.19361    215.23228   -1593.3651    24364.999   0.66548416 
 4962000      4962000    2105.0714    1472.3926    632.67887    210.10514   -121.22309    24301.811    0.6672145 
 4964000      4964000    2258.7129    1523.5451    735.16784    217.40442   -200.54538    24120.304   0.67223535 
 4966000      4966000    2197.4069    1515.6876    681.71927     216.2832   -733.02592    24062.432   0.67385213 
 4968000      4968000    2170.4366    1447.6655    722.77115    206.57668   -282.17738    23886.858    0.6788051 
 4970000      4970000    2114.9898    1464.4225    650.56727    208.96784    1338.5907    24252.076   0.66858279 
 4972000      4972000    2225.2986    1520.9801    704.31844    217.03842   -2011.3949    24412.165    0.6641984 
 4974000      4974000    2205.9641    1531.3481    674.61609    218.51788   -603.69931    24289.945   0.66754047 
 4976000      4976000    2229.2205    1545.7472    683.47336    220.57258    740.61441    24091.053   0.67305156 
 4978000      4978000    2184.6304    1506.1813    678.44912    214.92667    989.96446    24114.096   0.67240842 
 4980000      4980000    2193.1088     1501.017    692.09178    214.18975    1662.1012    23657.555   0.68538448 
 4982000      4982000    2162.8727    1479.5277    683.34499    211.12331   -339.03643    24095.509   0.67292711 
 4984000      4984000    2162.7303    1496.7832    665.94704    213.58561   -1331.9859    24110.931   0.67249667 
 4986000      4986000    2217.4299    1506.9336    710.49634    215.03402   -618.45216    24242.999   0.66883314 
 4988000      4988000    2171.6094    1497.5154    674.09396    213.69009     1076.677    24053.167   0.67411169 
 4990000      4990000    2129.0999    1491.2655    637.83441    212.79825   -296.37953    23707.307   0.68394614 
 4992000      4992000    2207.4909    1530.9202    676.57072    218.45682   -506.19727     24081.55   0.67331716 
 4994000      4994000       2239.4    1490.9851    748.41494    212.75823    172.98488    24166.673   0.67094553 
 4996000      4996000    2148.4407    1514.8503    633.59042    216.16371    840.04235    24044.727   0.67434831 
 4998000      4998000    2247.2275    1559.8334    687.39412    222.58263     883.2964    24264.328   0.66824522 
 5000000      5000000    2175.6383    1487.6381     688.0002    212.28063   -396.25907    24581.182   0.65963147 
Loop time of 11018.7 on 24 procs for 5000000 steps with 2352 atoms

Performance: 39.206 ns/day, 0.612 hours/ns, 453.772 timesteps/s
94.1% CPU use with 24 MPI tasks x 1 OpenMP threads

MPI task timing breakdown:
Section |  min time  |  avg time  |  max time  |%varavg| %total
---------------------------------------------------------------
Pair    | 5582.3     | 5781.9     | 5983.2     | 163.3 | 52.47
Bond    | 330.53     | 333.58     | 338.39     |  10.5 |  3.03
Kspace  | 1528.6     | 1731.9     | 1938.4     | 301.8 | 15.72
Neigh   | 290.38     | 292.25     | 293.33     |   4.8 |  2.65
Comm    | 1328.5     | 1349.7     | 1364       |  23.8 | 12.25
Output  | 1088.4     | 1089.9     | 1124.2     |  21.7 |  9.89
Modify  | 195.84     | 236.22     | 245.37     |  60.8 |  2.14
Other   |            | 203.4      |            |       |  1.85

Nlocal:    98 ave 111 max 83 min
Histogram: 2 0 3 1 2 6 4 2 3 1
Nghost:    5310.54 ave 5395 max 5246 min
Histogram: 2 1 4 4 5 2 3 2 0 1
Neighs:    53801.7 ave 61420 max 45614 min
Histogram: 1 2 3 2 2 4 5 2 1 2

Total # of neighbors = 1291241
Ave neighs/atom = 548.997
Ave special neighs/atom = 9.14286
Neighbor list builds = 139826
Dangerous builds = 0
write_data ethanol_after_npt.data
Ewald initialization ...
  using 12-bit tables for long-range coulomb (src/kspace.cpp:332)
  G vector (1/distance) = 0.188339
  estimated absolute RMS force accuracy = 0.00435253
  estimated relative force accuracy = 1.31075e-05
  KSpace vectors: actual max1d max3d = 128 4 364
                  kxmax kymax kzmax  = 4 4 4



#fix 1 all nvt temp 300 300 100# iso 1.0 1.0 1000.0
#dump            DUMPxyz all xyz 1 but1_clms_20ps.xyz

#run 500000
Total wall time: 3:03:44
