LAMMPS (3 Mar 2020)
  using 1 OpenMP thread(s) per MPI task
units           real
atom_style      full
boundary        p p p


pair_style      lj/cut/coul/long 12.0
pair_modify     tail yes mix geometric
bond_style      harmonic
angle_style     harmonic
dihedral_style  opls

kspace_style    ewald 1.0e-5
#special_bonds   lj/coul 0.0 0.0 0.5

neighbor        2.0 bin
neigh_modify    every 1 delay 0 check yes

read_data       butane_after_npt.data
  orthogonal box = (3.5033 3.5033 3.5033) to (31.4967 31.4967 31.4967)
  2 by 3 by 4 MPI processor grid
  reading atoms ...
  2352 atoms
  reading velocities ...
  2352 velocities
  scanning bonds ...
  1 = max bonds/atom
  scanning angles ...
  6 = max angles/atom
  scanning dihedrals ...
  11 = max dihedrals/atom
  reading bonds ...
  2184 bonds
  reading angles ...
  4032 angles
  reading dihedrals ...
  4536 dihedrals
  4 = max # of 1-2 neighbors
  6 = max # of 1-3 neighbors
  9 = max # of 1-4 neighbors
  13 = max # of special neighbors
  special bonds CPU = 0.00096776 secs
  read_data CPU = 0.0793944 secs

group           mobile union all
2352 atoms in group mobile

#minimize 1.0e-8 1.0e-10 400000 400000
#write_data buate_after_min.data

fix DEF all deform 1 x final 0.0 28.0629 y final 0.0 28.0629 z final 0.0 28.0629 units box
run 1
Ewald initialization ...
  using 12-bit tables for long-range coulomb (src/kspace.cpp:332)
  G vector (1/distance) = 0.189385
  estimated absolute RMS force accuracy = 0.00391074
  estimated relative force accuracy = 1.17771e-05
  KSpace vectors: actual max1d max3d = 128 4 364
                  kxmax kymax kzmax  = 4 4 4
Neighbor list info ...
  update every 1 steps, delay 0 steps, check yes
  max neighbors/atom: 2000, page size: 100000
  master list distance cutoff = 14
  ghost atom cutoff = 14
  binsize = 7, bins = 4 4 4
  1 neighbor lists, perpetual/occasional/extra = 1 0 0
  (1) pair lj/cut/coul/long, perpetual
      attributes: half, newton on
      pair build: half/bin/newton
      stencil: half/bin/3d/newton
      bin: standard
Per MPI rank memory allocation (min/avg/max) = 19.18 | 19.18 | 19.19 Mbytes
Step Temp E_pair E_mol TotEng Press Volume 
       0    161.53316   -946.26114    1128.0028    1313.7474   -102.91312    21936.478 
       1    161.53316   -946.02732    1128.0028    1313.9812   -100.69962    22100.273 
WARNING: Bond/angle/dihedral extent > half of periodic box length (src/domain.cpp:906)
Loop time of 0.00220674 on 24 procs for 1 steps with 2352 atoms

Performance: 39.153 ns/day, 0.613 hours/ns, 453.157 timesteps/s
95.4% CPU use with 24 MPI tasks x 1 OpenMP threads

MPI task timing breakdown:
Section |  min time  |  avg time  |  max time  |%varavg| %total
---------------------------------------------------------------
Pair    | 0.0010039  | 0.0011997  | 0.0014064  |   0.3 | 54.36
Bond    | 3.4605e-05 | 4.2003e-05 | 4.8981e-05 |   0.0 |  1.90
Kspace  | 0.00011781 | 0.00032599 | 0.00051935 |   0.0 | 14.77
Neigh   | 0          | 0          | 0          |   0.0 |  0.00
Comm    | 0.00048413 | 0.00050649 | 0.00052303 |   0.0 | 22.95
Output  | 4.1778e-05 | 5.4027e-05 | 7.0271e-05 |   0.0 |  2.45
Modify  | 4.698e-06  | 5.2769e-06 | 6.151e-06  |   0.0 |  0.24
Other   |            | 7.33e-05   |            |       |  3.32

Nlocal:    98 ave 109 max 90 min
Histogram: 1 1 5 5 6 2 1 0 2 1
Nghost:    5785.62 ave 5876 max 5714 min
Histogram: 4 2 2 3 3 2 5 1 0 2
Neighs:    60370.2 ave 70280 max 51424 min
Histogram: 2 2 6 1 0 4 4 2 2 1

Total # of neighbors = 1448885
Ave neighs/atom = 616.023
Ave special neighs/atom = 9.14286
Neighbor list builds = 0
Dangerous builds = 0
unfix DEF

thermo_style    custom step time enthalpy etotal ke pe temp press vol density
#thermo_modify   line multi
thermo          1000
thermo_modify   flush yes
timestep 1.0


## Equil NPT ##
#fix      NPT  all nvt temp 272 272 100 iso 1 1 1000
#restart 1000000 liqbut1.restart

#fix      NPT  all npt temp 160 160 50 iso 1 1 500
#dump myDump all atom 2000 butane_npt.lammpstrj

#run 5000000
#write_data ethanol_after_npt.data



fix 1 all nvt temp 160 160 100 # iso 1.0 1.0 1000.0
#dump            DUMPxyz all xyz 1 but1_clms_20ps.xyz
#dump            DUMP all custom 1000 mol.lammpstrj id type x y z fx fy fz mol

run 1000000
Ewald initialization ...
  using 12-bit tables for long-range coulomb (src/kspace.cpp:332)
  G vector (1/distance) = 0.189317
  estimated absolute RMS force accuracy = 0.00393399
  estimated relative force accuracy = 1.18471e-05
  KSpace vectors: actual max1d max3d = 128 4 364
                  kxmax kymax kzmax  = 4 4 4
Per MPI rank memory allocation (min/avg/max) = 19.28 | 19.29 | 19.3 Mbytes
Step Time Enthalpy TotEng KinEng PotEng Temp Press Volume Density 
       1            1   -403.73865    1325.9377    1132.0057    193.93198    161.53316   -5366.5021    22100.273   0.73367965 
    1000         1000    1204.5259    1309.8425    1134.1297    175.71279    161.83625   -326.75571    22100.273   0.73367965 
    2000         2000    1353.2643    1293.3314    1107.3012    186.03015    158.00792    185.94821    22100.273   0.73367965 
    3000         3000    1373.9847    1273.8435    1111.9644    161.87917    158.67333    310.69835    22100.273   0.73367965 
    4000         4000    1462.2224    1364.7974     1140.305    224.49235    162.71744    302.27128    22100.273   0.73367965 
    5000         5000     1539.089    1305.0735    1102.0289    203.04462    157.25557    726.05745    22100.273   0.73367965 
    6000         6000    1675.3543    1337.8847    1153.6916    184.19313    164.62766    1047.0349    22100.273   0.73367965 
    7000         7000    1449.3353    1333.7112    1118.3636    215.34765    159.58648    358.73583    22100.273   0.73367965 
    8000         8000    1449.4869    1275.0148     1089.538    185.47678    155.47317    541.31812    22100.273   0.73367965 
    9000         9000    1066.3705    1279.8207    1107.6067    172.21399     158.0515   -662.25137    22100.273   0.73367965 
   10000        10000    1140.5478    1320.6046    1112.0091    208.59545    158.67972    -558.6451    22100.273   0.73367965 
   11000        11000     1261.861    1255.8961    1099.0093     156.8868    156.82469    18.506788    22100.273   0.73367965 
   12000        12000     1516.606    1314.7842    1135.4149    179.36928    162.01964    626.17311    22100.273   0.73367965 
   13000        13000    1388.6984    1315.9799    1118.3104    197.66948    159.57889    225.61685    22100.273   0.73367965 
   14000        14000    860.87052    1263.3659    1073.3563    190.00963    153.16409   -1248.7841    22100.273   0.73367965 
   15000        15000    1363.3591    1288.3053    1148.3179    139.98739    163.86085    232.86242    22100.273   0.73367965 
   16000        16000    1238.7205    1357.9473    1118.3063    239.64101    159.57831   -369.91393    22100.273   0.73367965 
   17000        17000    803.17531    1317.5928    1118.0045    199.58834    159.53524   -1596.0343    22100.273   0.73367965 
   18000        18000      1514.64    1300.5949    1123.3973    177.19757    160.30478    664.09726    22100.273   0.73367965 
   19000        19000    1238.4557    1282.6088     1115.954    166.65482    159.24263   -136.98967    22100.273   0.73367965 
   20000        20000    990.06613     1275.952      1130.55    145.40197    161.32544    -886.9909    22100.273   0.73367965 
   21000        21000    963.97074    1297.0543    1112.3953    184.65904    158.73482   -1033.4267    22100.273   0.73367965 
   22000        22000    1123.4403    1327.8765    1118.4897    209.38671    159.60448   -634.28463    22100.273   0.73367965 
   23000        23000    948.61597    1317.4198    1125.9496    191.47012    160.66898   -1144.2524    22100.273   0.73367965 
   24000        24000    846.99308    1335.5123    1133.8448    201.66748    161.79559   -1515.6821    22100.273   0.73367965 
   25000        25000     767.7256    1287.3493    1114.7031    172.64613    159.06414   -1612.1869    22100.273   0.73367965 
   26000        26000    785.76216    1298.8732    1100.0295    198.84368    156.97027   -1591.9807    22100.273   0.73367965 
   27000        27000    1970.7359    1339.8017    1135.3871    204.41459    162.01567    1957.5397    22100.273   0.73367965 
   28000        28000    837.95965    1304.1971    1114.2339    189.96324    158.99718   -1446.5507    22100.273   0.73367965 
   29000        29000     1436.633    1269.9108    1111.8653    158.04553    158.65919    517.27309    22100.273   0.73367965 
   30000        30000    1313.3677    1299.8848    1112.3565    187.52832    158.72928    41.832107    22100.273   0.73367965 
   31000        31000    1287.4203     1339.057     1147.246    191.81096     163.7079   -160.20834    22100.273   0.73367965 
   32000        32000    998.12911    1296.4377     1086.888    209.54973    155.09502   -925.53373    22100.273   0.73367965 
   33000        33000    1093.3757    1346.3256    1129.5943    216.73137    161.18905    -784.8037    22100.273   0.73367965 
   34000        34000    1296.7715    1329.1305    1132.4293    196.70118     161.5936   -100.39704    22100.273   0.73367965 
   35000        35000    1273.0199    1279.7734    1100.3165     179.4569    157.01122   -20.953294    22100.273   0.73367965 
   36000        36000    1413.9814    1337.7895    1151.1364    186.65307    164.26304    236.39328    22100.273   0.73367965 
   37000        37000    1110.3754    1325.0932     1138.213     186.8802    162.41892   -666.18476    22100.273   0.73367965 
   38000        38000    1633.8734    1294.5776    1110.0273    184.55036    158.39691    1052.7008    22100.273   0.73367965 
   39000        39000    1343.2277    1320.9533     1141.322    179.63131    162.86255     69.10891    22100.273   0.73367965 
   40000        40000    821.29255    1304.2748    1112.0243    192.25052    158.68188   -1498.5031    22100.273   0.73367965 
   41000        41000    1301.8928    1307.6256    1114.1786    193.44698    158.98929   -17.786502    22100.273   0.73367965 
   42000        42000    1386.9317    1328.7763     1125.282    203.49427    160.57372    180.43322    22100.273   0.73367965 
   43000        43000    1341.2493    1309.7239    1115.9887    193.73519    159.24759    97.810769    22100.273   0.73367965 
   44000        44000    1092.8819    1307.7958    1149.4796    158.31621    164.02662   -666.79291    22100.273   0.73367965 
   45000        45000    1376.6341    1303.1145    1135.6508    167.46366     162.0533    228.10249    22100.273   0.73367965 
   46000        46000    1149.8601    1312.9447    1136.5292    176.41552    162.17864   -505.98702    22100.273   0.73367965 
   47000        47000    867.24802    1320.8884    1136.7838    184.10462    162.21498    -1407.467    22100.273   0.73367965 
   48000        48000      1351.13    1302.8384    1128.9559    173.88244    161.09796    149.82974    22100.273   0.73367965 
   49000        49000    1498.7265    1303.8725    1097.5871    206.28545    156.62174    604.55487    22100.273   0.73367965 
   50000        50000    1269.4316    1305.3754    1140.6741    164.70131     162.7701   -111.51923    22100.273   0.73367965 
   51000        51000    1190.8857    1270.9205    1105.9802    164.94033    157.81941   -248.31624    22100.273   0.73367965 
   52000        52000    1284.9825    1308.8906    1122.0585    186.83204    160.11373   -74.177229    22100.273   0.73367965 
   53000        53000    1012.1746    1276.0764    1100.1217    175.95474    156.98342   -818.78304    22100.273   0.73367965 
   54000        54000     868.0342    1301.1935    1116.0909    185.10256    159.26218   -1343.9221    22100.273   0.73367965 
   55000        55000     861.8168    1296.9959    1110.4301    186.56577     158.4544   -1350.1887    22100.273   0.73367965 
   56000        56000     1334.745    1329.8226    1112.6217    217.20097    158.76712    15.272047    22100.273   0.73367965 
   57000        57000    1791.8861     1329.812    1110.0275    219.78446    158.39695    1433.6335    22100.273   0.73367965 
   58000        58000    1017.6971    1281.7299    1088.4735    193.25646    155.32127   -819.18959    22100.273   0.73367965 
   59000        59000    871.23725    1322.0466    1136.7132    185.33336     162.2049   -1398.6832    22100.273   0.73367965 
   60000        60000    1395.6812    1306.4827    1117.8506    188.63211    159.51327    276.74779    22100.273   0.73367965 
   61000        61000    1347.2143    1267.8099    1095.2017    172.60823    156.28136    246.36052    22100.273   0.73367965 
   62000        62000    949.92871     1323.921     1139.982      183.939    162.67135   -1160.3504    22100.273   0.73367965 
   63000        63000    1240.1197    1292.5231    1112.9287    179.59443    158.81093   -162.58694    22100.273   0.73367965 
   64000        64000    894.37795    1289.8646    1124.4464    165.41824    160.45447   -1227.0388    22100.273   0.73367965 
   65000        65000     1333.412    1313.8305    1117.6191    196.21136    159.48024    60.753582    22100.273   0.73367965 
   66000        66000    1591.7422    1303.7796     1121.312    182.46762     160.0072    893.43418    22100.273   0.73367965 
   67000        67000     1354.888    1322.7311    1127.5694    195.16171    160.90011    99.770325    22100.273   0.73367965 
   68000        68000     1476.132    1301.5376    1106.6884    194.84923    157.92047     541.6974    22100.273   0.73367965 
   69000        69000    1621.2316    1329.1364    1129.7865    199.34987    161.21649    906.25602    22100.273   0.73367965 
   70000        70000    1306.5432    1279.9599    1092.6778    187.28207    155.92121    82.477428    22100.273   0.73367965 
   71000        71000    1862.5445    1343.6588    1145.8521    197.80668    163.50899    1609.8974    22100.273   0.73367965 
   72000        72000    1271.5921    1338.4643    1165.5388     172.9255    166.31822   -207.47803    22100.273   0.73367965 
   73000        73000    1147.9938    1299.7389    1116.5177    183.22121    159.32308   -470.80505    22100.273   0.73367965 
   74000        74000    1087.7444    1284.7872    1107.3165    177.47073     158.0101   -611.34615    22100.273   0.73367965 
   75000        75000    1825.5948    1321.7665    1115.2498    206.51671    159.14215    1563.1799    22100.273   0.73367965 
   76000        76000    1314.3992    1308.7908    1104.8878    203.90299    157.66353    17.400667    22100.273   0.73367965 
   77000        77000    1058.6173    1271.7731     1120.102    151.67113    159.83454   -661.33814    22100.273   0.73367965 
   78000        78000    1174.3819    1328.7969    1146.3144    182.48247    163.57496    -479.0887    22100.273   0.73367965 
   79000        79000    1356.7473    1298.2619    1128.9543    169.30755    161.09774    181.45701    22100.273   0.73367965 
   80000        80000     1707.885    1330.4527    1131.4645    198.98817    161.45593    1171.0235    22100.273   0.73367965 
   81000        81000    2099.1701    1300.6439    1102.5975    198.04647    157.33671    2477.5111    22100.273   0.73367965 
   82000        82000    1672.1563    1330.0448    1124.5375    205.50732    160.46747    1061.4368    22100.273   0.73367965 
   83000        83000    1103.2395    1298.1676    1104.2729    193.89465    157.57579   -604.78469    22100.273   0.73367965 
   84000        84000    1090.0294    1282.1769    1117.7461    164.43074    159.49837   -596.15757    22100.273   0.73367965 
   85000        85000    1262.5594    1317.2751    1112.1068    205.16834    158.69366   -169.76134    22100.273   0.73367965 
   86000        86000    1267.8281    1258.0978    1130.6728    127.42507    161.34295    30.189268    22100.273   0.73367965 
   87000        87000    1052.3392    1283.9481    1119.6223    164.32574     159.7661   -718.59091    22100.273   0.73367965 
   88000        88000    1314.8963    1309.3872    1129.4295    179.95765    161.16554     17.09264    22100.273   0.73367965 
   89000        89000    1876.3416    1310.4485     1137.925    172.52349    162.37783    1755.7425    22100.273   0.73367965 
   90000        90000    1416.3827     1323.354    1129.2465    194.10753    161.13943    288.63111    22100.273   0.73367965 
   91000        91000    1335.8046    1348.1204    1139.1135    209.00689    162.54741   -38.210946    22100.273   0.73367965 
   92000        92000    1492.2045    1309.3112    1116.6461    192.66516    159.34139    567.44547    22100.273   0.73367965 
   93000        93000    1456.6573    1282.2717    1122.1154    160.15623    160.12185    541.04971    22100.273   0.73367965 
   94000        94000    1574.5003    1370.2619    1164.7544    205.50757    166.20628    633.67084    22100.273   0.73367965 
   95000        95000    1586.2842    1334.2303      1135.79    198.44026    162.07317     782.0237    22100.273   0.73367965 
   96000        96000    1169.6888    1277.6289    1112.5364    165.09258    158.75495   -334.89561    22100.273   0.73367965 
   97000        97000    1375.9636    1306.1894    1123.2505    182.93893    160.28382    216.48175    22100.273   0.73367965 
   98000        98000    1872.2589    1337.1157    1149.6548    187.46091    164.05161    1660.3379    22100.273   0.73367965 
   99000        99000     1909.999    1290.3354    1121.9373    168.39812    160.09643    1922.5712    22100.273   0.73367965 
  100000       100000    1003.3738    1247.9876    1096.5747     151.4129    156.47729   -758.94002    22100.273   0.73367965 
  101000       101000    1872.6487    1326.8891    1129.4872    197.40186    161.17378    1693.2765    22100.273   0.73367965 
  102000       102000    919.79776    1254.2291     1093.451    160.77808    156.03154   -1037.6083    22100.273   0.73367965 
  103000       103000    898.87867    1315.9384    1117.6034    198.33494    159.47801   -1293.9715    22100.273   0.73367965 
  104000       104000    517.10985    1285.7072    1115.5425    170.16474    159.18391   -2384.6538    22100.273   0.73367965 
  105000       105000    1040.2764    1346.3034    1141.3746    204.92877    162.87007   -949.48087    22100.273   0.73367965 
  106000       106000    1068.5235    1338.1497    1136.9019    201.24783    162.23183   -836.54375    22100.273   0.73367965 
  107000       107000    1683.8217    1295.1194    1116.6747     178.4447    159.34548    1205.9897    22100.273   0.73367965 
  108000       108000    1852.0238    1334.7356    1135.2593     199.4763    161.99743    1604.9411    22100.273   0.73367965 
  109000       109000     1057.845    1282.7388    1124.9544     157.7844    160.52696   -697.75649    22100.273   0.73367965 
  110000       110000    1288.4296      1288.31    1100.8873    187.42273    157.09267   0.37097366    22100.273   0.73367965 
  111000       111000    1561.2409     1332.286    1158.7766    173.50935    165.35327    710.35674    22100.273   0.73367965 
  112000       112000    1261.5069    1315.6854    1114.3992    201.28622    159.02077   -168.09454    22100.273   0.73367965 
  113000       113000    1203.1446    1347.4685    1132.1372    215.33133    161.55192   -447.78013    22100.273   0.73367965 
  114000       114000    1653.5625    1312.8361    1124.2864    188.54968    160.43164    1057.1392    22100.273   0.73367965 
  115000       115000    922.44346    1277.0373    1112.7058    164.33152    158.77913   -1100.1645    22100.273   0.73367965 
  116000       116000    1569.9935    1337.8774    1131.8416    206.03581    161.50974    720.16443    22100.273   0.73367965 
  117000       117000    1298.0253     1283.351    1112.4017    170.94934    158.73573    45.528672    22100.273   0.73367965 
  118000       118000     1537.326    1305.1087    1135.5601    169.54862    162.04036     720.4783    22100.273   0.73367965 
  119000       119000    660.76652    1314.0059    1117.5288    196.47712    159.46736   -2026.7438    22100.273   0.73367965 
  120000       120000    960.35044    1330.8059    1161.5571    169.24872    165.75004   -1149.3767    22100.273   0.73367965 
  121000       121000    1369.3267    1370.9286    1155.8075    215.12113    164.92959   -4.9701407    22100.273   0.73367965 
  122000       122000    1167.7195    1296.2377    1124.1491     172.0886    160.41205   -398.74141    22100.273   0.73367965 
  123000       123000     1331.305     1328.448    1123.2979    205.15015    160.29058     8.864243    22100.273   0.73367965 
  124000       124000    1488.6956    1290.3434    1100.5958    189.74762    157.05107    615.40851    22100.273   0.73367965 
  125000       125000    1786.2705    1382.4525     1154.374    228.07848    164.72503    1252.8879    22100.273   0.73367965 
  126000       126000    1145.3338    1310.1611    1082.6113    227.54979    154.48476   -511.39384    22100.273   0.73367965 
  127000       127000    1143.1397    1303.0596     1113.338    189.72153    158.86935   -496.16822    22100.273   0.73367965 
  128000       128000    1404.2789    1303.4927    1111.0851    192.40756    158.54786     312.6997    22100.273   0.73367965 
  129000       129000    1550.4894    1276.7403    1103.3531    173.38722    157.44454    849.33507    22100.273   0.73367965 
  130000       130000    1218.6861    1331.6177    1105.9215    225.69617    157.81104    -350.3819    22100.273   0.73367965 
  131000       131000    1361.8144    1344.7388    1145.5555    199.18325    163.46667    52.978799    22100.273   0.73367965 
  132000       132000    1487.6698    1289.7059    1114.8309    174.87506    159.08237    614.20378    22100.273   0.73367965 
  133000       133000    1304.2571    1311.0847    1104.7003    206.38439    157.63677   -21.183422    22100.273   0.73367965 
  134000       134000    1178.6217    1274.2223    1105.9067    168.31558    157.80892   -296.61086    22100.273   0.73367965 
  135000       135000     1324.016    1329.1597    1140.5007    188.65899    162.74537   -15.958853    22100.273   0.73367965 
  136000       136000    1122.7285    1299.1306    1123.4499    175.68075    160.31227   -547.30605    22100.273   0.73367965 
  137000       137000    1225.1501     1290.713    1108.6317    182.08133    158.19777   -203.41579    22100.273   0.73367965 
  138000       138000    1322.9801    1274.3198    1098.8986    175.42118     156.8089     150.9736    22100.273   0.73367965 
  139000       139000    1000.9669    1319.8164    1127.8576    191.95881    160.94124   -989.26388    22100.273   0.73367965 
  140000       140000    1354.6741    1332.3225    1127.8952    204.42733     160.9466    69.348271    22100.273   0.73367965 
  141000       141000    1179.8142    1287.8733    1131.2935    156.57985    161.43153   -335.26482    22100.273   0.73367965 
  142000       142000    1612.6476    1356.6729    1146.2348    210.43809     163.5636    794.18828    22100.273   0.73367965 
  143000       143000    1239.0233    1329.3857    1144.8956    184.49013     163.3725   -280.35897    22100.273   0.73367965 
  144000       144000    1115.0178    1281.6823    1116.5229    165.15944    159.32382    -517.0941    22100.273   0.73367965 
  145000       145000    1517.7274    1333.1377    1143.8182    189.31948    163.21876    572.70895    22100.273   0.73367965 
  146000       146000    1296.7186    1337.2974    1141.9111    195.38629    162.94663   -125.90008    22100.273   0.73367965 
  147000       147000    1506.0451    1308.1485    1101.8781    206.27038    157.23406    613.99502    22100.273   0.73367965 
  148000       148000    927.83132    1325.1889     1139.955    185.23389    162.66749   -1232.8435    22100.273   0.73367965 
  149000       149000    1105.4613    1314.6616    1134.6808    179.98082    161.91489   -649.06587    22100.273   0.73367965 
  150000       150000    796.32034    1273.6984    1093.3566    180.34172    156.01808   -1481.1154    22100.273   0.73367965 
  151000       151000    1666.5104    1349.4177    1129.7109    219.70675     161.2057    983.81347    22100.273   0.73367965 
  152000       152000    1196.3891    1308.5566     1124.501    184.05556    160.46226   -348.01126    22100.273   0.73367965 
  153000       153000    822.69617    1295.4237    1106.4401    188.98366    157.88504   -1466.6869    22100.273   0.73367965 
  154000       154000    1016.7852    1271.7943    1097.2834    174.51094     156.5784   -791.19235    22100.273   0.73367965 
  155000       155000    1557.7708    1332.6813    1113.0251    219.65623    158.82469    698.36375    22100.273   0.73367965 
  156000       156000    1920.6099    1318.5046    1128.6647    189.83996    161.05641    1868.0946    22100.273   0.73367965 
  157000       157000    1429.5364    1341.9421    1096.4496    245.49247    156.45943    271.77056    22100.273   0.73367965 
  158000       158000    1324.2625    1317.6712    1125.0227    192.64843    160.53672    20.450316    22100.273   0.73367965 
  159000       159000    1206.7411    1320.8564    1105.6738    215.18259    157.77569   -354.05454    22100.273   0.73367965 
  160000       160000    1441.2789    1268.6262    1063.5232    205.10296    151.76095    535.67307    22100.273   0.73367965 
  161000       161000      1179.63    1307.0386    1135.9724    171.06616    162.09919   -395.29863    22100.273   0.73367965 
  162000       162000    1173.0614    1254.7308    1087.2936    167.43729    155.15289   -253.38799    22100.273   0.73367965 
  163000       163000    1601.3656    1307.4648    1111.7468    195.71807    158.64228    911.85791    22100.273   0.73367965 
  164000       164000    1525.4561    1351.7789    1162.2143    189.56452    165.84382    538.85178    22100.273   0.73367965 
  165000       165000    1850.1741    1292.2059    1116.7466    175.45937    159.35573    1731.1547    22100.273   0.73367965 
  166000       166000    1245.2552    1313.6464    1114.6492    198.99718    159.05645   -212.19091    22100.273   0.73367965 
  167000       167000    1311.1507    1328.1463    1126.5417    201.60457    160.75347   -52.730655    22100.273   0.73367965 
  168000       168000    1139.2196     1313.008    1121.5903    191.41766    160.04692   -539.19673    22100.273   0.73367965 
  169000       169000    1538.9419    1317.1631    1130.7505    186.41264    161.35404    688.09207    22100.273   0.73367965 
  170000       170000    1571.9269    1273.8159    1079.6786     194.1373    154.06627    924.92067    22100.273   0.73367965 
  171000       171000    861.36554    1284.5328     1089.679    194.85376    155.49329   -1312.9207    22100.273   0.73367965 
  172000       172000    1395.0727    1340.5194    1140.1857    200.33375    162.70041    169.25731    22100.273   0.73367965 
  173000       173000    1159.8228    1318.4325    1104.3384    214.09407    157.58513   -492.10322    22100.273   0.73367965 
  174000       174000     851.2353    1314.9028    1113.3293    201.57345    158.86811    -1438.577    22100.273   0.73367965 
  175000       175000    769.60876    1294.5137    1115.1774    179.33623    159.13182   -1628.5725    22100.273   0.73367965 
  176000       176000    1491.6679     1302.063     1121.149     180.9139    159.98395    588.26933    22100.273   0.73367965 
  177000       177000    1104.3892    1321.6971    1115.8968    205.80028    159.23448   -674.22062    22100.273   0.73367965 
  178000       178000      1181.95    1258.7624    1095.6654    163.09697    156.34753   -238.31848    22100.273   0.73367965 
  179000       179000    1370.2118    1295.3827    1121.6769    173.70578    160.05928    232.16507    22100.273   0.73367965 
  180000       180000    1198.5808    1340.6975    1134.9296    205.76794    161.95039   -440.93222    22100.273   0.73367965 
  181000       181000    1131.1092    1344.3681    1150.2795    194.08865    164.14076   -661.65815    22100.273   0.73367965 
  182000       182000    1205.0275    1326.1875    1146.9191    179.26834    163.66125   -375.91147    22100.273   0.73367965 
  183000       183000     1721.918    1385.1965    1160.9745    224.22202     165.6669    1044.7135    22100.273   0.73367965 
  184000       184000    1237.2687    1289.0072    1117.5868    171.42038    159.47564   -160.52409    22100.273   0.73367965 
  185000       185000    1016.6448    1309.8064    1110.5592    199.24724    158.47282   -909.56462    22100.273   0.73367965 
  186000       186000    1433.7377    1344.4805    1152.8041    191.67646    164.50101    276.92981    22100.273   0.73367965 
  187000       187000    1293.8889     1296.893    1136.8318    160.06123    162.22182   -9.3205866    22100.273   0.73367965 
  188000       188000    1309.7312    1295.9305    1146.4642     149.4662    163.59634    42.818191    22100.273   0.73367965 
  189000       189000    1380.3952    1346.5372    1158.2655    188.27174    165.28033    105.04802    22100.273   0.73367965 
  190000       190000    1657.6418     1292.325    1100.1622    192.16282    156.98921    1133.4335    22100.273   0.73367965 
  191000       191000    1374.4808    1288.1656    1133.1523     155.0133    161.69677    267.80219    22100.273   0.73367965 
  192000       192000    1325.8957    1323.2697    1127.2173     196.0524    160.84988    8.1472172    22100.273   0.73367965 
  193000       193000    1103.5424    1247.3074    1112.4499    134.85752    158.74262   -446.04613    22100.273   0.73367965 
  194000       194000     956.9592    1275.2471     1086.695    188.55202    155.06749   -987.52143    22100.273   0.73367965 
  195000       195000     743.3361    1302.3909    1107.0643    195.32655    157.97411   -1734.5261    22100.273   0.73367965 
  196000       196000    1106.1928    1323.3194    1133.8865     189.4329    161.80154   -673.65809    22100.273   0.73367965 
  197000       197000    1474.2786    1350.7116    1144.6225    206.08917    163.33353    383.37936    22100.273   0.73367965 
  198000       198000    1141.2231    1290.2126    1126.3736    163.83899    160.72948   -462.25556    22100.273   0.73367965 
  199000       199000    1799.5587    1311.8483    1121.9794    189.86893    160.10244    1513.1725    22100.273   0.73367965 
  200000       200000    1143.2311    1278.2039    1120.7904    157.41343    159.93278   -418.76714    22100.273   0.73367965 
  201000       201000    1237.1154    1317.8397    1115.3098    202.52994    159.15071   -250.45566    22100.273   0.73367965 
  202000       202000     1743.853    1372.8625    1135.8682    236.99426    162.08433    1151.0369    22100.273   0.73367965 
  203000       203000    1583.0642    1300.4853    1114.4844    186.00087    159.03293    876.73073    22100.273   0.73367965 
  204000       204000    1263.6917     1265.018    1082.7964    182.22166    154.51116   -4.1148934    22100.273   0.73367965 
  205000       205000     1284.053    1338.4925    1130.7545    207.73807    161.35461   -168.90428    22100.273   0.73367965 
  206000       206000    1282.8854    1301.6146    1136.0587    165.55587    162.11151   -58.109238    22100.273   0.73367965 
  207000       207000    1293.4186    1405.6359    1165.0316    240.60434    166.24583   -348.16592    22100.273   0.73367965 
  208000       208000    1299.7574    1275.6084    1118.3231    157.28534     159.5807    74.924636    22100.273   0.73367965 
  209000       209000     1195.105    1336.2989    1149.1562    187.14267    163.98047   -438.06868    22100.273   0.73367965 
  210000       210000    1262.4508    1340.1595    1129.9069    210.25265    161.23366   -241.09937    22100.273   0.73367965 
  211000       211000     994.4301    1325.0282    1120.6073    204.42093    159.90665   -1025.7154    22100.273   0.73367965 
  212000       212000    1461.8572    1321.2798    1109.3479    211.93193    158.29997    436.15592    22100.273   0.73367965 
  213000       213000    1356.7251    1315.0271    1120.0777    194.94941    159.83107    129.37243    22100.273   0.73367965 
  214000       214000    1310.9802    1336.9475    1137.7733    199.17424    162.35617   -80.566208    22100.273   0.73367965 
  215000       215000    1402.1713    1276.9517    1096.2767    180.67494    156.43476    388.50712    22100.273   0.73367965 
  216000       216000    1428.3922    1280.7187    1075.5935    205.12523    153.48334    458.17251    22100.273   0.73367965 
  217000       217000    1600.1359    1337.9378    1102.4147    235.52312    157.31063    813.49713    22100.273   0.73367965 
  218000       218000    1359.8129    1351.3347    1161.0235    190.31122     165.6739    26.304349    22100.273   0.73367965 
  219000       219000    1235.9053     1326.872    1118.3856    208.48637    159.58962   -282.23359    22100.273   0.73367965 
  220000       220000    920.70692    1310.6504    1117.8381    192.81231    159.51149   -1209.8405    22100.273   0.73367965 
  221000       221000    1082.2207    1300.4604    1096.3265    204.13393    156.44186   -677.11176    22100.273   0.73367965 
  222000       222000    1407.6347    1330.7449    1114.5975    216.14742    159.04907    238.55872    22100.273   0.73367965 
  223000       223000    1054.6699    1321.7806     1115.676    206.10458    159.20297   -828.73903    22100.273   0.73367965 
  224000       224000    1163.7557    1324.0214    1118.8314    205.18998    159.65324    -497.2411    22100.273   0.73367965 
  225000       225000    1322.7369    1323.8744    1117.9044    205.96998    159.52095   -3.5292182    22100.273   0.73367965 
  226000       226000    1484.6488    1260.7605    1083.0053    177.75526    154.54097    694.63666    22100.273   0.73367965 
  227000       227000    1689.8433    1285.6845    1095.5005    190.18396      156.324    1253.9451    22100.273   0.73367965 
  228000       228000    1381.0444    1294.7715    1125.1967    169.57477    160.56154    267.67086    22100.273   0.73367965 
  229000       229000    1260.0787    1320.8596    1125.1895    195.67012    160.56051   -188.57925    22100.273   0.73367965 
  230000       230000    942.90643    1319.3141      1103.05    216.26409    157.40128   -1167.8442    22100.273   0.73367965 
  231000       231000    1437.2705    1337.3991    1135.6595    201.73962    162.05454    309.86152    22100.273   0.73367965 
  232000       232000    1610.8408    1284.9147    1106.0869    178.82777    157.83464    1011.2199    22100.273   0.73367965 
  233000       233000      1252.13     1326.913    1130.0659    196.84707    161.25635   -232.02206    22100.273   0.73367965 
  234000       234000    1150.5416     1313.667    1115.7648     197.9022    159.21564   -506.11381    22100.273   0.73367965 
  235000       235000    1173.3873    1282.8001    1101.1636    181.63656     157.1321   -339.46491    22100.273   0.73367965 
  236000       236000     1511.716    1305.0049    1118.8164    186.18848    159.65109    641.34289    22100.273   0.73367965 
  237000       237000    1404.9838    1314.6586    1106.1973    208.46135    157.85039    280.24327    22100.273   0.73367965 
  238000       238000    1203.8304    1266.5603    1090.9721    175.58819    155.67781   -194.62605    22100.273   0.73367965 
  239000       239000    954.26545    1339.7867    1105.3484     234.4383    157.72926   -1196.1201    22100.273   0.73367965 
  240000       240000    601.40008    1291.2136    1096.0346    195.17891    156.40022   -2140.2186    22100.273   0.73367965 
  241000       241000    1164.2178    1337.2195    1144.2805    192.93898    163.28473   -536.75599    22100.273   0.73367965 
  242000       242000     1068.759     1300.186     1131.643    168.54304     161.4814   -718.02649    22100.273   0.73367965 
  243000       243000    1201.0654    1353.9324     1127.536    226.39637    160.89535   -474.28566    22100.273   0.73367965 
  244000       244000    1146.3586    1288.5086    1114.5392    173.96943    159.04075   -441.03535    22100.273   0.73367965 
  245000       245000     890.9913    1299.5473    1107.4772    192.07013    158.03302   -1267.5878    22100.273   0.73367965 
  246000       246000    1285.1368    1336.5945    1119.2313    217.36321    159.71029   -159.65277    22100.273   0.73367965 
  247000       247000    791.62459    1319.2678    1130.1563    189.11146    161.26926   -1637.0683    22100.273   0.73367965 
  248000       248000    999.40125    1317.9881    1111.3849    206.60318    158.59064   -988.44902    22100.273   0.73367965 
  249000       249000    1350.7705    1290.8724    1134.2818    156.59058    161.85796    185.84012    22100.273   0.73367965 
  250000       250000    1782.3651    1310.7734    1108.1154    202.65795     158.1241    1463.1629    22100.273   0.73367965 
  251000       251000    1367.9059    1291.6259     1107.406    184.21987    158.02287    236.66689    22100.273   0.73367965 
  252000       252000    948.13707    1268.9444    1094.5409    174.40351    156.18706   -995.33841    22100.273   0.73367965 
  253000       253000     1371.682    1328.6491    1133.3552    195.29389    161.72573    133.51393    22100.273   0.73367965 
  254000       254000    1126.4515    1291.1002    1136.2639     154.8363    162.14078   -510.83988    22100.273   0.73367965 
  255000       255000    1417.5828    1279.3829    1104.4982    174.88471    157.60794     428.7797    22100.273   0.73367965 
  256000       256000    1213.6203    1358.1048    1166.8594    191.24534    166.50666   -448.27829    22100.273   0.73367965 
  257000       257000    1337.3721    1324.0278    1153.0939    170.93389    164.54236    41.402227    22100.273   0.73367965 
  258000       258000    1185.8091    1299.7848    1118.8463    180.93852    159.65536   -353.62156    22100.273   0.73367965 
  259000       259000    1084.4578    1350.7235    1134.9241    215.79938     161.9496   -826.11697    22100.273   0.73367965 
  260000       260000    846.19859    1325.6042    1146.1386    179.46558    163.54987    -1487.406    22100.273   0.73367965 
  261000       261000    1339.9282    1287.9893    1103.9157    184.07362    157.52482    161.14583    22100.273   0.73367965 
  262000       262000    1494.6437    1352.1241     1134.615    217.50913    161.90549    442.18211    22100.273   0.73367965 
  263000       263000    1017.5709    1335.8895    1142.6946     193.1949    163.05842   -987.61655    22100.273   0.73367965 
  264000       264000    1403.0385    1336.0728    1154.7444    181.32846    164.77788    207.76817    22100.273   0.73367965 
  265000       265000    566.42862    1278.9391    1085.7263    193.21281    154.92925   -2210.6384    22100.273   0.73367965 
  266000       266000    1256.6775    1316.4679    1114.3342    202.13367     159.0115     -185.506    22100.273   0.73367965 
  267000       267000    907.47191     1295.478    1117.5965    177.88151    159.47702   -1203.8297    22100.273   0.73367965 
  268000       268000    1140.5191    1324.7144    1133.7223    190.99209    161.77811   -571.48529    22100.273   0.73367965 
  269000       269000    1360.2692    1319.1272    1104.4456    214.68156    157.60043    127.64753    22100.273   0.73367965 
  270000       270000    1027.9245    1298.9883    1121.9371    177.05118    160.09641   -841.00399    22100.273   0.73367965 
  271000       271000    1323.0543    1316.5953    1112.6583    203.93701    158.77236    20.039699    22100.273   0.73367965 
  272000       272000    1370.3516    1273.3031    1077.9725    195.33065    153.82281    301.10319    22100.273   0.73367965 
  273000       273000    1279.0347    1291.1814    1119.4936    171.68775    159.74773   -37.686527    22100.273   0.73367965 
  274000       274000     1496.705    1358.6746    1132.7748    225.89977    161.64291    428.25394    22100.273   0.73367965 
  275000       275000    917.23775    1356.1581    1159.3798    196.77821    165.43935   -1361.7963    22100.273   0.73367965 
  276000       276000    1399.0141    1290.4479    1106.1471    184.30086    157.84323    336.83789    22100.273   0.73367965 
  277000       277000    1259.1026    1287.9766    1139.3489    148.62771      162.581    -89.58456    22100.273   0.73367965 
  278000       278000    949.55472    1317.0556    1121.5138    195.54179      160.036     -1140.21    22100.273   0.73367965 
  279000       279000    1404.0131    1287.2808    1122.5948    164.68602    160.19025    362.17433    22100.273   0.73367965 
  280000       280000    1624.9594    1340.1479    1153.1816    186.96635    164.55488    883.65743    22100.273   0.73367965 
  281000       281000    1207.3153    1314.4978      1131.25    183.24774    161.42533   -332.54491    22100.273   0.73367965 
  282000       282000    1438.5281    1312.8606    1102.3484    210.51224    157.30116    389.89663    22100.273   0.73367965 
  283000       283000    1604.3353    1320.5456    1130.0575    190.48807    161.25516     880.4872    22100.273   0.73367965 
  284000       284000    1322.5493    1246.5298    1067.8592    178.67058    152.37968    235.85854    22100.273   0.73367965 
  285000       285000    1501.9311    1303.4652    1120.8825    182.58269    159.94591    615.76144    22100.273   0.73367965 
  286000       286000    1551.7782    1333.6194    1133.8844    199.73497    161.80125    676.86056    22100.273   0.73367965 
  287000       287000    1381.7893    1325.5027    1125.8283    199.67447    160.65166    174.63492    22100.273   0.73367965 
  288000       288000    1744.3947    1306.2318    1124.2809    181.95093    160.43085    1359.4465    22100.273   0.73367965 
  289000       289000    878.23328    1311.3717    1113.8066    197.56511     158.9362   -1343.8573    22100.273   0.73367965 
  290000       290000    1213.2162    1376.6341    1152.3427    224.29149    164.43517   -507.02126    22100.273   0.73367965 
  291000       291000    1775.1649     1287.044     1106.397    180.64709    157.87888     1514.446    22100.273   0.73367965 
  292000       292000    1052.7303    1304.3672    1109.0986    195.26857     158.2644   -780.72979    22100.273   0.73367965 
  293000       293000     1046.399     1325.564    1137.5154    188.04858    162.31938   -866.13877    22100.273   0.73367965 
  294000       294000    1607.4263    1253.0383    1106.4604    146.57794    157.88793    1099.5259    22100.273   0.73367965 
  295000       295000    1314.4723    1294.4427    1091.7929     202.6498    155.79493    62.143984    22100.273   0.73367965 
  296000       296000     1141.088    1306.8659    1121.9433    184.92265    160.09728   -514.34344    22100.273   0.73367965 
  297000       297000    928.94758    1356.6683    1143.8946    212.77367    163.22967   -1327.0484    22100.273   0.73367965 
  298000       298000    1323.1315    1305.1463    1106.6714     198.4749    157.91804    55.800896    22100.273   0.73367965 
  299000       299000    1192.0268    1289.9195    1102.1842    187.73535    157.27774   -303.72237    22100.273   0.73367965 
  300000       300000    1415.0888    1375.3184    1166.0423    209.27611    166.39006    123.39181    22100.273   0.73367965 
  301000       301000    1827.2826    1320.3324    1138.4387    181.89377    162.45112    1572.8662    22100.273   0.73367965 
  302000       302000    1233.9397    1245.3448    1078.6403    166.70449    153.91811   -35.385467    22100.273   0.73367965 
  303000       303000     1275.302    1315.1112    1127.6867    187.42451    160.91686   -123.51248    22100.273   0.73367965 
  304000       304000    1538.4597    1322.8256    1113.1646    209.66098     158.8446    669.02743    22100.273   0.73367965 
  305000       305000     1120.899    1322.3351    1116.2554    206.07974    159.28564   -624.97683    22100.273   0.73367965 
  306000       306000    1285.6383    1284.7005    1118.2038    166.49677    159.56367    2.9096038    22100.273   0.73367965 
  307000       307000    1574.3438    1316.0742    1104.7559    211.31831    157.64471    801.30854    22100.273   0.73367965 
  308000       308000    1513.1923    1282.3831     1126.979    155.40401    160.81587    716.10977    22100.273   0.73367965 
  309000       309000    717.73897    1312.6698    1124.3465    188.32337    160.44021   -1845.8353    22100.273   0.73367965 
  310000       310000     868.4777    1239.4805    1079.1996    160.28088    153.99792   -1151.0751    22100.273   0.73367965 
  311000       311000    1580.1895    1296.6124    1108.6572    187.95518    158.20141    879.82775    22100.273   0.73367965 
  312000       312000    1141.4217    1355.1836    1129.3911    225.79244    161.16007   -663.21855    22100.273   0.73367965 
  313000       313000    1652.4871    1324.6502    1096.1841    228.46618    156.42154    1017.1481    22100.273   0.73367965 
  314000       314000    742.20993    1264.5042    1121.6574    142.84683    160.05649   -1620.4728    22100.273   0.73367965 
  315000       315000    1218.8118    1318.6928    1124.0734    194.61937    160.40125   -309.89114    22100.273   0.73367965 
  316000       316000    1402.9972    1243.0626     1115.497     127.5656    159.17742    496.21404    22100.273   0.73367965 
  317000       317000    1355.5315    1318.0317    1114.5722     203.4595    159.04546    116.34697    22100.273   0.73367965 
  318000       318000    1572.1173    1355.7528    1159.1049    196.64796    165.40011    671.29328    22100.273   0.73367965 
  319000       319000    1781.6665    1303.4563    1103.4635    199.99276    157.46029    1483.6975    22100.273   0.73367965 
  320000       320000    1652.9995    1355.2978    1129.6881    225.60961    161.20245    923.65076    22100.273   0.73367965 
  321000       321000    1427.8164     1311.621     1138.841    172.77998    162.50853    360.50852    22100.273   0.73367965 
  322000       322000    1417.5783    1287.5502    1124.0394    163.51074     160.3964    403.42593    22100.273   0.73367965 
  323000       323000    1330.3737    1357.2223    1141.9267    215.29559    162.94885   -83.300417    22100.273   0.73367965 
  324000       324000    1334.4876    1329.5814    1123.8802    205.70115    160.37368    15.222131    22100.273   0.73367965 
  325000       325000    1383.7987    1297.6969    1112.9524    184.74444    158.81433       267.14    22100.273   0.73367965 
  326000       326000    1409.6504    1304.4014    1101.0932     203.3082    157.12206    326.54603    22100.273   0.73367965 
  327000       327000     1505.354     1335.949    1128.9219    207.02717    161.09311    525.59659    22100.273   0.73367965 
  328000       328000    1149.4526    1312.9227    1104.5088     208.4139    157.60944   -507.18292    22100.273   0.73367965 
  329000       329000    1620.0331    1279.0115    1123.8257    155.18578     160.3659    1058.0554    22100.273   0.73367965 
  330000       330000    1144.5248    1311.2563    1133.3427     177.9136    161.72394   -517.30183    22100.273   0.73367965 
  331000       331000    1140.8096    1244.8395    1076.9913    167.84815     153.6828   -322.76339    22100.273   0.73367965 
  332000       332000    1510.3591    1330.6518    1149.0961    181.55564     163.9719    557.56098    22100.273   0.73367965 
  333000       333000    932.81585    1281.6696    1112.4021    169.26752    158.73579   -1082.3553    22100.273   0.73367965 
  334000       334000     1190.389      1290.35     1123.279    167.07106    160.28789   -310.13948    22100.273   0.73367965 
  335000       335000     1413.172    1325.5761    1145.7572    179.81893    163.49544    271.77565    22100.273   0.73367965 
  336000       336000    768.76296    1318.9667    1140.4242    178.54249    162.73445   -1707.0649    22100.273   0.73367965 
  337000       337000    1107.2062    1272.9881      1118.71    154.27813     159.6359   -514.35561    22100.273   0.73367965 
  338000       338000    1725.4169    1313.2198    1114.3464     198.8734    159.01324    1278.8847    22100.273   0.73367965 
  339000       339000    1566.3013    1296.8639    1100.8253    196.03863    157.08382     835.9577    22100.273   0.73367965 
  340000       340000    1647.3401    1358.0716    1157.7855     200.2861    165.21184    897.48598    22100.273   0.73367965 
  341000       341000    808.99361    1291.5562    1115.3347    176.22159    159.15426   -1497.2011    22100.273   0.73367965 
  342000       342000    1518.7247    1344.4005    1134.2819    210.11866    161.85796    540.85912    22100.273   0.73367965 
  343000       343000    1142.9048    1337.6456    1133.2298    204.41576    161.70783    -604.2036    22100.273   0.73367965 
  344000       344000    1378.9512    1321.1029     1130.774    190.32892     161.3574    179.48028    22100.273   0.73367965 
  345000       345000    1313.2188    1301.1381    1100.7646    200.37359    157.07516     37.48163    22100.273   0.73367965 
  346000       346000    1544.1471    1331.2145    1147.4536    183.76094    163.73752    660.64578    22100.273   0.73367965 
  347000       347000    1464.5939    1347.1322    1144.7148    202.41735     163.3467    364.43745    22100.273   0.73367965 
  348000       348000    1441.0822    1283.4905    1088.6587    194.83181    155.34769    488.94489    22100.273   0.73367965 
  349000       349000    1417.3504    1312.0379    1154.3714    157.66644    164.72467     326.7431    22100.273   0.73367965 
  350000       350000    1076.9639    1352.2004      1157.67    194.53034    165.19537   -853.94994    22100.273   0.73367965 
  351000       351000    1171.3309    1335.4031    1136.2395    199.16359    162.13731   -509.05111    22100.273   0.73367965 
  352000       352000    686.36138    1292.2019    1118.9747    173.22725    159.67368   -1879.6838    22100.273   0.73367965 
  353000       353000    774.50775    1270.0022    1086.2503    183.75196    155.00402   -1537.3236    22100.273   0.73367965 
  354000       354000    650.83522    1334.0473    1144.3783    189.66901    163.29868    -2119.737    22100.273   0.73367965 
  355000       355000    1282.6912    1311.2693    1139.4529     171.8164    162.59584   -88.666512    22100.273   0.73367965 
  356000       356000    1678.0552     1307.027    1120.0477    186.97929    159.82679    1151.1538    22100.273   0.73367965 
  357000       357000    1003.4363    1304.8416     1123.695    181.14666    160.34725   -935.14163    22100.273   0.73367965 
  358000       358000    1184.6894    1320.5645    1125.1661    195.39833    160.55718   -421.56674    22100.273   0.73367965 
  359000       359000    1521.2557    1259.8082    1101.8366     157.9716    157.22813    811.16846    22100.273   0.73367965 
  360000       360000    1779.6724    1296.6166    1096.5946    200.02201    156.48012    1498.7315    22100.273   0.73367965 
  361000       361000    1830.8479    1306.2577    1115.1191    191.13861     159.1235    1627.5961    22100.273   0.73367965 
  362000       362000     1687.203    1280.1361    1091.9273    188.20878    155.81411    1262.9677    22100.273   0.73367965 
  363000       363000    1465.6042    1312.6858    1120.8018    191.88401     159.9344    474.44535    22100.273   0.73367965 
  364000       364000    1764.8196    1287.6209    1124.4839    163.13701    160.45982    1480.5589    22100.273   0.73367965 
  365000       365000    1372.5743    1286.2417    1104.9828     181.2589    157.67708    267.85617    22100.273   0.73367965 
  366000       366000    1145.8202    1298.5803    1113.0172    185.56306    158.82357   -473.95411    22100.273   0.73367965 
  367000       367000    1581.8933    1365.0247    1139.4534    225.57139    162.59591    672.85731    22100.273   0.73367965 
  368000       368000    1424.9408    1313.8723    1112.4264    201.44596    158.73926    344.60164    22100.273   0.73367965 
  369000       369000    1319.5207    1253.4424    1082.7373    170.70514    154.50273    205.01474    22100.273   0.73367965 
  370000       370000    1442.8457    1303.5219    1081.7993    221.72268    154.36888    432.26649    22100.273   0.73367965 
  371000       371000    1757.2367    1311.6158    1124.8432    186.77259     160.5111    1382.5856    22100.273   0.73367965 
  372000       372000    1488.1683    1279.4515    1128.2468    151.20468    160.99678    647.56582    22100.273   0.73367965 
  373000       373000    1420.2191    1346.3746    1142.7628    203.61178    163.06816    229.11037    22100.273   0.73367965 
  374000       374000     1634.201    1297.9547     1119.896    178.05873    159.80515    1043.2394    22100.273   0.73367965 
  375000       375000    1438.2197    1271.5705    1105.2829    166.28759    157.71991    517.04657    22100.273   0.73367965 
  376000       376000    1391.5932    1330.5136    1099.8535    230.66008    156.94516     189.5058    22100.273   0.73367965 
  377000       377000    1970.3496    1302.6838    1119.3297    183.35401    159.72434    2071.5032    22100.273   0.73367965 
  378000       378000    1494.8229    1337.5968     1147.678    189.91876    163.76954    487.81053    22100.273   0.73367965 
  379000       379000    1481.1185    1323.0425    1137.3876     185.6549    162.30114    490.44722    22100.273   0.73367965 
  380000       380000    1263.4585    1229.8459    1052.5559    177.29005    150.19595    104.28662    22100.273   0.73367965 
  381000       381000     1777.283    1314.9507    1132.5481    182.40262    161.61056    1434.4343    22100.273   0.73367965 
  382000       382000     1823.315    1266.7159    1100.7475    165.96839    157.07273    1726.9071    22100.273   0.73367965 
  383000       383000    1564.9218    1302.1229    1129.3206     172.8022    161.15001    815.36121    22100.273   0.73367965 
  384000       384000    1262.6137    1294.5575    1104.0681    190.48948    157.54656   -99.109218    22100.273   0.73367965 
  385000       385000    1521.0675    1330.8918    1126.9284    203.96335    160.80865    590.04032    22100.273   0.73367965 
  386000       386000    620.05021    1318.4214    1129.5113    188.91009    161.17722   -2166.7699    22100.273   0.73367965 
  387000       387000    1170.9729    1321.6877    1134.9588    186.72886    161.95456   -467.60826    22100.273   0.73367965 
  388000       388000    1013.8331    1293.8457    1117.3453    176.50041    159.44117   -868.76825    22100.273   0.73367965 
  389000       389000    1461.8093    1321.6319    1117.4695    204.16248    159.45889    434.91504    22100.273   0.73367965 
  390000       390000    1281.3662    1302.5554    1117.2709    185.28446    159.43056   -65.741802    22100.273   0.73367965 
  391000       391000     1117.132    1329.0296    1142.1196    186.90999    162.97638   -657.43444    22100.273   0.73367965 
  392000       392000    1529.2878    1293.3026    1114.2736    179.02903    159.00285    732.16871    22100.273   0.73367965 
  393000       393000    1161.4534    1308.9415    1115.4741    193.46742    159.17415   -457.59733    22100.273   0.73367965 
  394000       394000    1508.0557    1312.0337    1128.4758    183.55793    161.02945    608.17872    22100.273   0.73367965 
  395000       395000    1629.1502    1314.5234    1142.9383    171.58515     163.0932    976.16263    22100.273   0.73367965 
  396000       396000    1086.7438    1298.3475    1117.0905    181.25696    159.40482   -656.52275    22100.273   0.73367965 
  397000       397000    1045.5007    1325.8768    1091.6488    234.22796    155.77437   -869.89624    22100.273   0.73367965 
  398000       398000    921.90091    1289.7472    1098.7553     190.9919    156.78845   -1141.2818    22100.273   0.73367965 
  399000       399000    1241.5906    1332.7574    1129.6584      203.099     161.1982   -282.85449    22100.273   0.73367965 
  400000       400000    1449.3035    1279.6711    1117.8109    161.86019    159.50761    526.30224    22100.273   0.73367965 
  401000       401000    1530.7572     1300.863    1104.4778    196.38517    157.60503    713.27097    22100.273   0.73367965 
  402000       402000    1809.7832    1339.3039    1125.3238    213.98012    160.57967    1459.7113    22100.273   0.73367965 
  403000       403000    1507.8517    1273.6919    1082.2197    191.47223    154.42887    726.50546    22100.273   0.73367965 
  404000       404000    1593.8254    1289.8757    1118.2717    171.60397    159.57336    943.03586    22100.273   0.73367965 
  405000       405000    1205.7456    1304.0119    1098.5767    205.43524    156.76296   -304.88162    22100.273   0.73367965 
  406000       406000    1812.5161     1307.793    1122.4627    185.33031    160.17141    1565.9561    22100.273   0.73367965 
  407000       407000    1263.1655    1365.6941    1156.7305    208.96352     165.0613   -318.10573    22100.273   0.73367965 
  408000       408000    1482.3372    1305.7748    1111.7822    193.99261    158.64734    547.80341    22100.273   0.73367965 
  409000       409000    1419.8466    1303.9502    1124.4776    179.47264    160.45893    359.58047    22100.273   0.73367965 
  410000       410000    1344.8934    1354.2244    1160.3361    193.88828     165.5758   -28.950398    22100.273   0.73367965 
  411000       411000    1201.6617    1297.5037     1101.693    195.81066    157.20764   -297.35982    22100.273   0.73367965 
  412000       412000     1433.819    1293.6972    1125.5995    168.09763    160.61902     434.7427    22100.273   0.73367965 
  413000       413000    1363.4228    1357.8976    1154.5499    203.34774    164.75013    17.142406    22100.273   0.73367965 
  414000       414000    1075.7833     1311.779     1135.472    176.30698    162.02779   -732.20126    22100.273   0.73367965 
  415000       415000    1600.0531    1279.2319    1103.8193     175.4125    157.51107    995.38154    22100.273   0.73367965 
  416000       416000    1094.1776    1305.5477    1137.5204     168.0273    162.32009   -655.79813    22100.273   0.73367965 
  417000       417000     1302.001    1290.6479     1125.817     164.8309    160.65005    35.224222    22100.273   0.73367965 
  418000       418000    1487.7092    1325.3728    1125.4632    199.90962    160.59957    503.66555    22100.273   0.73367965 
  419000       419000    1546.9567    1286.5852    1121.7338    164.85133     160.0674       807.83    22100.273   0.73367965 
  420000       420000    1310.9245    1312.0369    1134.6601    177.37675    161.91193   -3.4510739    22100.273   0.73367965 
  421000       421000    1294.1905    1319.5724    1129.3111    190.26125    161.14865   -78.749823    22100.273   0.73367965 
  422000       422000    1144.7764    1317.3717    1126.8108    190.56087    160.79186   -535.49504    22100.273   0.73367965 
  423000       423000    2047.1493     1298.757    1109.5795    189.17754    158.33302    2321.9655    22100.273   0.73367965 
  424000       424000    1515.9669     1299.119    1111.3429    187.77609    158.58465    672.79332    22100.273   0.73367965 
  425000       425000    1272.5779    1316.9352     1113.107    203.82824    158.83638   -137.62335    22100.273   0.73367965 
  426000       426000    1298.0918    1278.7438     1091.035    187.70877    155.68678    60.029376    22100.273   0.73367965 
  427000       427000     1038.226    1304.9883    1107.2172    197.77112    157.99592   -827.65789    22100.273   0.73367965 
  428000       428000    1073.8178    1368.8969    1136.5391    232.35787    162.18005   -915.51408    22100.273   0.73367965 
  429000       429000    1368.9626    1333.4164    1132.3038    201.11262    161.57569    110.28579    22100.273   0.73367965 
  430000       430000    1722.3353    1295.9942    1128.9745    167.01967    161.10062    1322.7681    22100.273   0.73367965 
  431000       431000    1266.7444    1315.3516    1142.5905    172.76103    163.04358   -150.80884    22100.273   0.73367965 
  432000       432000    1538.3981    1236.9701    1074.4437    162.52641    153.31927    935.21205    22100.273   0.73367965 
  433000       433000    1330.0567    1314.4232    1127.8068    186.61646    160.93398    48.504522    22100.273   0.73367965 
  434000       434000     1486.011    1252.4607    1092.1766    160.28412    155.84968    724.61442    22100.273   0.73367965 
  435000       435000     1362.801    1296.9202    1116.5308    180.38944    159.32494    204.40211    22100.273   0.73367965 
  436000       436000    1677.1001    1355.2512    1142.5873    212.66388    163.04311    998.56996    22100.273   0.73367965 
  437000       437000    1426.1085    1318.7747    1122.0829    196.69182    160.11721    333.01454    22100.273   0.73367965 
  438000       438000    1692.4002    1319.1227    1124.6064    194.51631     160.4773    1158.1325    22100.273   0.73367965 
  439000       439000     1433.443    1285.4408    1112.4934    172.94731    158.74883    459.19241    22100.273   0.73367965 
  440000       440000    1106.9412    1244.9007    1072.3508    172.54998    153.02061   -428.03394    22100.273   0.73367965 
  441000       441000    1460.4929    1329.6251    1137.5835    192.04158    162.32909    406.03131    22100.273   0.73367965 
  442000       442000    1052.9362    1293.2972     1113.517    179.78017    158.89489   -745.74505    22100.273   0.73367965 
  443000       443000    1133.0574    1302.0349    1099.6613    202.37359    156.91773   -524.27038    22100.273   0.73367965 
  444000       444000    1230.8511    1309.2441    1125.0786    184.16542    160.54469   -243.22223    22100.273   0.73367965 
  445000       445000    1100.4935    1305.2735    1126.3577    178.91579    160.72721   -635.35143    22100.273   0.73367965 
  446000       446000    910.51068    1251.9867    1081.4023    170.58439    154.31223   -1059.4651    22100.273   0.73367965 
  447000       447000     900.3019    1314.8378    1119.1765    195.66139    159.70247   -1286.1412    22100.273   0.73367965 
  448000       448000    1016.0054    1285.2608    1112.5375    172.72332    158.75511   -835.39314    22100.273   0.73367965 
  449000       449000    823.15515    1326.4297    1137.1415    189.28824    162.26601   -1561.4621    22100.273   0.73367965 
  450000       450000    1165.5927    1338.7242    1113.5374    225.18679     158.8978   -537.15876    22100.273   0.73367965 
  451000       451000    965.99917    1320.6273    1118.7494     201.8779    159.64153   -1100.2708    22100.273   0.73367965 
  452000       452000    1793.5621    1350.7319     1150.428    200.30389    164.16196     1373.927    22100.273   0.73367965 
  453000       453000    1176.8265    1307.3946    1114.2809    193.11364    159.00389   -405.10102    22100.273   0.73367965 
  454000       454000    1307.2671    1307.9939    1147.5513    160.44265    163.75146   -2.2551049    22100.273   0.73367965 
  455000       455000    1535.2429    1314.6325    1097.8277    216.80479    156.65608    684.46699    22100.273   0.73367965 
  456000       456000    1337.7042     1291.629    1108.7056    182.92346    158.20831    142.95304    22100.273   0.73367965 
  457000       457000    1541.8975    1352.8701    1151.7664    201.10367    164.35294    586.47738    22100.273   0.73367965 
  458000       458000    1461.4159    1318.8518     1118.872    199.97978    159.65902    442.32003    22100.273   0.73367965 
  459000       459000    1276.5572    1268.5955    1096.0599    172.53557    156.40382     24.70214    22100.273   0.73367965 
  460000       460000    1270.9185    1278.9768    1070.4922    208.48457    152.75541   -25.001611    22100.273   0.73367965 
  461000       461000    1113.1572    1309.6252    1148.4138     161.2114    163.87454   -609.56278    22100.273   0.73367965 
  462000       462000    1121.6022    1322.4245    1132.6214    189.80302    161.62102   -623.07217    22100.273   0.73367965 
  463000       463000    1844.9643     1312.895    1097.8704    215.02463    156.66217     1650.801    22100.273   0.73367965 
  464000       464000    1319.2502    1316.2335    1130.1937    186.03978    161.27459     9.359734    22100.273   0.73367965 
  465000       465000    1312.6895    1312.3859    1115.1199    197.26599    159.12361   0.94200396    22100.273   0.73367965 
  466000       466000    1118.4358    1289.5582     1115.097    174.46123    159.12034   -530.92503    22100.273   0.73367965 
  467000       467000    1633.1337    1333.4813    1113.6738    219.80755    158.91726     929.7028    22100.273   0.73367965 
  468000       468000    1665.1482    1294.8373    1122.9429     171.8944    160.23992    1148.9285    22100.273   0.73367965 
  469000       469000    1691.1642    1268.2345    1091.1416    177.09293    155.70199    1312.1838    22100.273   0.73367965 
  470000       470000    1190.0834    1318.2461    1120.2168    198.02937    159.85092   -397.63823    22100.273   0.73367965 
  471000       471000    1759.7737    1297.4172    1096.2425     201.1747    156.42988    1434.5094    22100.273   0.73367965 
  472000       472000    1131.4252    1290.5633    1115.8791     174.6842    159.23195    -493.7427    22100.273   0.73367965 
  473000       473000    1267.1801    1315.5423    1140.1251    175.41715    162.69177   -150.04874    22100.273   0.73367965 
  474000       474000    1246.2779    1279.5704     1102.746    176.82437    157.35791   -103.29341    22100.273   0.73367965 
  475000       475000    1842.1571     1303.089     1117.395    185.69402    159.44826    1672.5152    22100.273   0.73367965 
  476000       476000    1640.6518    1297.2569    1134.4021    162.85474    161.87512    1065.4186    22100.273   0.73367965 
  477000       477000    1266.1027    1305.2063    1125.9989    179.20744    160.67601   -121.32297    22100.273   0.73367965 
  478000       478000    1440.4073       1275.8    1120.5286    155.27146    159.89541    510.71123    22100.273   0.73367965 
  479000       479000    1332.1522    1335.5016    1126.2365    209.26511    160.70991     -10.3918    22100.273   0.73367965 
  480000       480000    1025.2791    1296.4263    1115.7584    180.66788    159.21472   -841.26236    22100.273   0.73367965 
  481000       481000    859.43192    1276.4945    1104.2185    172.27603    157.56802   -1293.9804    22100.273   0.73367965 
  482000       482000    926.10202    1318.6506    1118.0671    200.58349    159.54417   -1217.9231    22100.273   0.73367965 
  483000       483000      1151.26    1307.5459    1094.0191     213.5268    156.11261   -484.89347    22100.273   0.73367965 
  484000       484000    1274.0172    1350.9496    1125.6723    225.27732    160.62941   -238.69106    22100.273   0.73367965 
  485000       485000    930.89568    1312.5762    1112.9483    199.62795    158.81373   -1184.2039    22100.273   0.73367965 
  486000       486000    1603.5083    1286.0678    1121.2275    164.84033    159.99515    984.89249    22100.273   0.73367965 
  487000       487000     1319.131     1332.256    1161.3357    170.92031    165.71844   -40.721596    22100.273   0.73367965 
  488000       488000    1713.2579    1293.4579    1095.1016    198.35635    156.26707    1302.4734    22100.273   0.73367965 
  489000       489000    1293.1163    1309.4777    1116.9193    192.55841    159.38038   -50.763003    22100.273   0.73367965 
  490000       490000    1252.3042    1300.7034    1128.0617    172.64167    160.97037   -150.16363    22100.273   0.73367965 
  491000       491000    1024.4678    1302.8158    1116.6173    186.19848    159.33729   -863.60373    22100.273   0.73367965 
  492000       492000    1236.0733    1298.8975     1149.081    149.81644    163.96975   -194.91866    22100.273   0.73367965 
  493000       493000    1347.7941    1323.3088    1106.5577    216.75109    157.90182    75.968198    22100.273   0.73367965 
  494000       494000    1557.0215    1274.3069    1120.2831    154.02375    159.86039    877.15166    22100.273   0.73367965 
  495000       495000    1331.4586    1304.2838     1156.569    147.71483    165.03825    84.312556    22100.273   0.73367965 
  496000       496000    1053.6769     1323.046    1112.0567    210.98926    158.68651   -835.74568    22100.273   0.73367965 
  497000       497000    1063.9079    1278.6858    1102.2741    176.41174    157.29056   -666.37105    22100.273   0.73367965 
  498000       498000    1320.0267     1326.783    1121.4805    205.30253    160.03125   -20.962268    22100.273   0.73367965 
  499000       499000    1592.1553    1320.8806    1127.9583    192.92229     160.9556    841.65836    22100.273   0.73367965 
  500000       500000    1302.5896    1295.8539    1117.4965    178.35736    159.46275    20.898475    22100.273   0.73367965 
  501000       501000    1424.9775    1267.9459    1097.5808    170.36511    156.62084    487.20725    22100.273   0.73367965 
  502000       502000    1603.6382    1314.2035    1137.7523    176.45124    162.35317    898.00151    22100.273   0.73367965 
  503000       503000    1473.8746    1354.3722     1152.554     201.8182    164.46533    370.76865    22100.273   0.73367965 
  504000       504000    1250.9594    1278.5556    1075.7512    202.80441    153.50585   -85.620098    22100.273   0.73367965 
  505000       505000    798.76027    1289.9339    1121.8106    168.12331    160.07835   -1523.9176    22100.273   0.73367965 
  506000       506000    1337.1561    1342.1653     1161.998    180.16733    165.81295   -15.541756    22100.273   0.73367965 
  507000       507000     1960.561     1290.723    1116.8552    173.86785    159.37123    2078.2426    22100.273   0.73367965 
  508000       508000    1522.5017    1347.8048    1154.6036    193.20115     164.7578     542.0154    22100.273   0.73367965 
  509000       509000    1480.1395    1301.1678    1098.4399    202.72789    156.74344     555.2783    22100.273   0.73367965 
  510000       510000    1841.5172    1361.3942    1139.5137    221.88051    162.60453    1489.6318    22100.273   0.73367965 
  511000       511000    1490.7411    1314.5988    1122.6115    191.98726    160.19264    546.49996    22100.273   0.73367965 
  512000       512000    1098.4593     1323.589    1153.9466    169.64241    164.66404   -698.48843    22100.273   0.73367965 
  513000       513000    1278.8975    1259.3559    1103.8263     155.5296    157.51206    60.629799    22100.273   0.73367965 
  514000       514000    1553.9201    1310.9415    1112.4444    198.49705    158.74183    753.86674    22100.273   0.73367965 
  515000       515000    1322.6301    1304.3598    1107.6843    196.67548    158.06258    56.685474    22100.273   0.73367965 
  516000       516000    1587.6141    1270.9901    1112.7461    158.24399    158.78489    982.35919    22100.273   0.73367965 
  517000       517000    1335.4136    1280.1649    1122.8231    157.34175    160.22284    171.41494    22100.273   0.73367965 
  518000       518000    1094.5932    1268.2423    1095.9675    172.27482    156.39063   -538.76433    22100.273   0.73367965 
  519000       519000    1388.0395    1320.8724    1160.8556    160.01677    165.64994    208.39315    22100.273   0.73367965 
  520000       520000    1265.3627     1294.169    1103.9579    190.21108    157.53084   -89.374538    22100.273   0.73367965 
  521000       521000    1934.4287    1346.5104    1148.0833    198.42714    163.82737    1824.0782    22100.273   0.73367965 
  522000       522000    613.85442    1273.2913    1115.9762    157.31506    159.24581   -2045.9721    22100.273   0.73367965 
  523000       523000    1891.4096    1304.7416    1144.9781    159.76353    163.38427     1820.199    22100.273   0.73367965 
  524000       524000    1549.3958    1278.2906    1112.5413    165.74934    158.75566    841.13231    22100.273   0.73367965 
  525000       525000    1571.9068    1332.8602    1150.2388    182.62138    164.13496    741.66706    22100.273   0.73367965 
  526000       526000    1646.5002    1323.9531    1110.6158    213.33738    158.48089    1000.7361    22100.273   0.73367965 
  527000       527000    1047.6082    1337.3203    1144.3777    192.94261     163.2986   -898.86219    22100.273   0.73367965 
  528000       528000    1082.4361    1308.2266    1166.3451    141.88149    166.43326   -700.53862    22100.273   0.73367965 
  529000       529000    1091.1442    1259.0107    1095.7811    163.22954    156.36404   -520.82329    22100.273   0.73367965 
  530000       530000    920.97764    1305.6097    1104.0069    201.60284    157.53783   -1193.3614    22100.273   0.73367965 
  531000       531000    1195.5426    1363.0402    1149.6171    213.42317    164.04624   -519.67886    22100.273   0.73367965 
  532000       532000    1142.3764    1307.9376    1127.4761    180.46149     160.8868    -513.6708    22100.273   0.73367965 
  533000       533000    766.59199    1315.3102    1120.1223    195.18792    159.83743   -1702.4557    22100.273   0.73367965 
  534000       534000     1012.884    1285.2374    1125.4307    159.80672    160.59493   -845.00521    22100.273   0.73367965 
  535000       535000    1235.4007    1263.5784    1094.4644    169.11396    156.17615   -87.424032    22100.273   0.73367965 
  536000       536000    1432.5316     1308.642    1123.9237     184.7183    160.37989    384.38041    22100.273   0.73367965 
  537000       537000    1400.6491    1325.2404    1141.6798    183.56059    162.91361    233.96361    22100.273   0.73367965 
  538000       538000    1672.4186     1340.186    1147.6949    192.49105    163.77195    1030.7866    22100.273   0.73367965 
  539000       539000    1173.3913    1302.1359    1125.4348    176.70104    160.59552    -399.4434    22100.273   0.73367965 
  540000       540000    1064.0072    1353.6331    1152.5908    201.04236    164.47057   -898.59491    22100.273   0.73367965 
  541000       541000     1145.283     1304.665    1124.4895    180.17549    160.46063   -494.49932    22100.273   0.73367965 
  542000       542000      627.416    1282.5937    1117.5107    165.08301    159.46477   -2032.7574    22100.273   0.73367965 
  543000       543000    1300.4376    1338.7369    1121.1257    217.61117    159.98062   -118.82751    22100.273   0.73367965 
  544000       544000    1334.8021    1328.4379     1119.503    208.93494    159.74906    19.745776    22100.273   0.73367965 
  545000       545000     1005.269    1323.5237    1131.9319    191.59183    161.52262   -987.41849    22100.273   0.73367965 
  546000       546000     1423.941    1353.7221    1138.5759    215.14625     162.4707    217.86155    22100.273   0.73367965 
  547000       547000    1520.6809    1332.5757     1120.484    212.09165    159.88906    583.61607    22100.273   0.73367965 
  548000       548000    1275.3519    1266.7355     1122.661    144.07451    160.19971    26.733273    22100.273   0.73367965 
  549000       549000    1878.7417    1324.4133    1133.4566     190.9567     161.7402    1719.8618    22100.273   0.73367965 
  550000       550000    898.58093    1271.1529    1096.0171    175.13584    156.39771   -1155.9436    22100.273   0.73367965 
  551000       551000    1004.1513    1311.6061    1113.7581    197.84794     158.9293    -953.9107    22100.273   0.73367965 
  552000       552000    1144.3338    1298.2883    1125.6964    172.59197    160.63284   -477.65992    22100.273   0.73367965 
  553000       553000    1139.5829    1286.1362    1078.5168    207.61944    153.90048   -454.69692    22100.273   0.73367965 
  554000       554000    1334.1243    1311.1858    1107.4707    203.71512     158.0321    71.169186    22100.273   0.73367965 
  555000       555000    1072.1285    1294.2399    1108.8137    185.42617    158.22375   -689.12379    22100.273   0.73367965 
  556000       556000    1706.0765    1321.4124     1130.719    190.69338    161.34955    1193.4606    22100.273   0.73367965 
  557000       557000    1437.1658     1294.123    1126.2769    167.84608    160.71568    443.80539    22100.273   0.73367965 
  558000       558000     1231.547     1327.634    1140.1661    187.46786    162.69762   -298.11998    22100.273   0.73367965 
  559000       559000     1372.832      1295.44    1117.9971    177.44289    159.53418    240.11672    22100.273   0.73367965 
  560000       560000    1996.5578    1338.2094    1123.0238    215.18558    160.25147    2042.5949    22100.273   0.73367965 
  561000       561000    1262.0743    1310.4199     1104.187    206.23298    157.56352   -149.99749    22100.273   0.73367965 
  562000       562000    1380.5947    1281.1591    1110.7638    170.39529    158.50202    308.50934    22100.273   0.73367965 
  563000       563000     1046.173    1309.3029    1131.2849    178.01791    161.43031   -816.38779    22100.273   0.73367965 
  564000       564000    1565.9981    1285.1756    1106.7439    178.43168    157.92839    871.28117    22100.273   0.73367965 
  565000       565000    707.71555    1294.4429      1121.05    173.39291    159.96982   -1820.3831    22100.273   0.73367965 
  566000       566000    1441.8161    1338.7275    1138.2232    200.50432    162.42037    319.84313    22100.273   0.73367965 
  567000       567000    1327.6896    1314.6066    1113.0529    201.55374    158.82866    40.591287    22100.273   0.73367965 
  568000       568000    1266.3226    1318.0811    1099.0553    219.02581    156.83125   -160.58612    22100.273   0.73367965 
  569000       569000      1115.89    1310.0682    1132.1907    177.87746    161.55956   -602.45828    22100.273   0.73367965 
  570000       570000    1120.8797    1261.6491     1093.123    168.52605    155.98474   -436.75159    22100.273   0.73367965 
  571000       571000    1644.3864    1333.8797    1123.3517    210.52802    160.29827    963.37937    22100.273   0.73367965 
  572000       572000    1315.9845    1331.8278    1129.2389    202.58886    161.13835   -49.155525    22100.273   0.73367965 
  573000       573000    1150.1333    1358.4048    1160.2375    198.16733    165.56173   -646.18426    22100.273   0.73367965 
  574000       574000     1784.202    1315.4636     1119.516    195.94759    159.75092    1454.3102    22100.273   0.73367965 
  575000       575000    1368.3397    1263.2358    1087.1792    176.05661    155.13658    326.09569    22100.273   0.73367965 
  576000       576000    928.95327     1308.901    1095.8637    213.03731    156.37582   -1178.8276    22100.273   0.73367965 
  577000       577000    807.41623    1376.8197    1136.3663    240.45337     162.1554   -1766.6338    22100.273   0.73367965 
  578000       578000    1577.9936    1299.7413    1137.1419    162.59938    162.26608    863.30697    22100.273   0.73367965 
  579000       579000    1233.9928    1294.2723    1100.4414    193.83094    157.02904   -187.02365    22100.273   0.73367965 
  580000       580000    1277.8814    1274.8834    1094.0637    180.81972    156.11897    9.3016333    22100.273   0.73367965 
  581000       581000    1130.7667    1315.4093    1124.3443    191.06501    160.43991   -572.87326    22100.273   0.73367965 
  582000       582000    941.10538    1266.1991    1115.3059     150.8932    159.15015   -1008.6373    22100.273   0.73367965 
  583000       583000    1429.4901    1333.3191    1129.4937    203.82537     161.1747    298.38069    22100.273   0.73367965 
  584000       584000    1112.1468    1304.1278    1099.5099    204.61787    156.89613   -595.64117    22100.273   0.73367965 
  585000       585000     1345.927    1316.5232    1135.7402    180.78299    162.06606    91.228542    22100.273   0.73367965 
  586000       586000    1780.6692    1331.8801    1122.6554    209.22469    160.19891    1392.4151    22100.273   0.73367965 
  587000       587000    1852.3556    1314.3001    1125.7193    188.58082    160.63611    1669.3738    22100.273   0.73367965 
  588000       588000    1217.8347    1280.3388    1124.5444     155.7944    160.46845   -193.92557    22100.273   0.73367965 
  589000       589000    1352.7948    1269.8688    1115.4508    154.41801    159.17083     257.2868    22100.273   0.73367965 
  590000       590000    1318.7875    1313.7461     1116.866    196.88013    159.37278     15.64136    22100.273   0.73367965 
  591000       591000    1149.2858    1309.3158    1130.6118    178.70396    161.33426   -496.50984    22100.273   0.73367965 
[...]
  857000       857000    1499.2095    1314.3079    1121.7286    192.57933    160.06665     573.6767    22100.273   0.73367965 
  858000       858000    1588.8712    1310.5764    1138.4555    172.12094    162.45352    863.43874    22100.273   0.73367965 
  859000       859000    1406.3444     1263.279    1087.8934     175.3856     155.2385    443.87524    22100.273   0.73367965 
  860000       860000    1167.9821     1315.722    1132.3097    183.41232    161.57654   -458.37862    22100.273   0.73367965 
  861000       861000    1880.1644    1325.8282    1128.0821    197.74616    160.97327    1719.8863    22100.273   0.73367965 
  862000       862000    1576.4964    1366.4883    1160.2213      206.267    165.55942    651.57217    22100.273   0.73367965 
  863000       863000    1248.4444    1312.0413     1112.422    199.61931    158.73863   -197.31612    22100.273   0.73367965 
  864000       864000    854.17111    1294.2232    1095.8709    198.35229    156.37686   -1365.3078    22100.273   0.73367965 
  865000       865000    1518.9467    1288.3222    1126.9942    161.32797    160.81804    715.53673    22100.273   0.73367965 
  866000       866000    1338.2679    1329.4025    1154.3008    175.10173    164.71458    27.505911    22100.273   0.73367965 
  867000       867000    1309.2791    1328.1406    1100.2548    227.88576    157.00242   -58.519748    22100.273   0.73367965 
  868000       868000    915.48663    1281.6587    1116.0609    165.59779    159.25789   -1136.0872    22100.273   0.73367965 
  869000       869000    926.53045    1280.8748     1118.258    162.61674    159.57141   -1099.3904    22100.273   0.73367965 
  870000       870000    1659.6583    1311.5063    1106.3152    205.19107    157.86722    1080.1782    22100.273   0.73367965 
  871000       871000    1584.9016    1303.5537    1108.3275    195.22619    158.15436     872.9114    22100.273   0.73367965 
  872000       872000    1288.0373    1295.6865    1103.5893    192.09723    157.47824   -23.732649    22100.273   0.73367965 
  873000       873000    978.01681    1311.9706    1117.6079    194.36271    159.47865   -1036.1267    22100.273   0.73367965 
  874000       874000    1082.4821    1310.8508    1092.1007    218.75014    155.83886   -708.53784    22100.273   0.73367965 
  875000       875000    696.12405    1324.7576    1147.3031     177.4545    163.71604   -1950.4015    22100.273   0.73367965 
  876000       876000    1120.1034    1298.2112    1134.6415    163.56967    161.90928   -552.59813    22100.273   0.73367965 
  877000       877000    1776.5492    1328.3577     1114.131    214.22671     158.9825    1390.5611    22100.273   0.73367965 
  878000       878000     1423.571    1300.8986    1121.7762    179.12233    160.07345    380.60409    22100.273   0.73367965 
  879000       879000    1420.3526    1311.4695    1109.6498    201.81964    158.34306    337.82119    22100.273   0.73367965 
  880000       880000    1680.7068    1343.1402    1121.5988    221.54143    160.04813    1047.3356    22100.273   0.73367965 
  881000       881000    1282.5134    1294.2412    1098.7008    195.54036    156.78067   -36.386521    22100.273   0.73367965 
  882000       882000    1550.3441    1360.7759    1134.0225    226.75339    161.82095    588.15522    22100.273   0.73367965 
  883000       883000    1515.4675    1297.0083    1132.2146    164.79367    161.56297    677.79241    22100.273   0.73367965 
  884000       884000    1317.0656    1280.7871    1110.7757    170.01136    158.50372    112.55803    22100.273   0.73367965 
  885000       885000    1337.9893    1326.5586    1123.5601    202.99855      160.328     35.46493    22100.273   0.73367965 
  886000       886000    1431.8964    1267.7747     1124.419     143.3557    160.45056    509.20473    22100.273   0.73367965 
  887000       887000    799.00383    1309.9168     1124.459    185.45779    160.45628   -1585.1611    22100.273   0.73367965 
  888000       888000    1462.9174    1311.4109    1115.1003    196.31057    159.12082    470.06494    22100.273   0.73367965 
  889000       889000    990.18948    1298.2962    1112.2178    186.07839     158.7095   -955.93337    22100.273   0.73367965 
  890000       890000    1412.1343    1342.2577    1147.2383    195.01932     163.7068     216.7997    22100.273   0.73367965 
  891000       891000    1468.0517    1290.1626    1115.5182    174.64434    159.18045    551.91971    22100.273   0.73367965 
  892000       892000     1142.572    1302.8442    1123.8758    178.96842    160.37305   -497.26142    22100.273   0.73367965 
  893000       893000    1681.6016    1332.2335    1123.2274    209.00607    160.28053    1083.9512    22100.273   0.73367965 
  894000       894000    1241.7744     1264.738    1106.0648    158.67327    157.83148    -71.24714    22100.273   0.73367965 
  895000       895000    1317.7206    1295.9686     1095.958    200.01054    156.38929    67.487863    22100.273   0.73367965 
  896000       896000    1116.0277    1318.8143    1141.7234    177.09095    162.91983   -629.16655    22100.273   0.73367965 
  897000       897000    1144.6317    1308.6055    1110.4602    198.14534    158.45869   -508.74609    22100.273   0.73367965 
  898000       898000    1050.7333    1321.6597    1138.7379    182.92174    162.49382    -840.5774    22100.273   0.73367965 
  899000       899000    1802.6777    1330.8561    1116.3509    214.50529    159.29927    1463.8758    22100.273   0.73367965 
  900000       900000    1391.8847    1295.1378    1081.4429    213.69495    154.31802    300.16742    22100.273   0.73367965 
  901000       901000    1271.7203    1275.9641    1127.6029    148.36121    160.90489   -13.166953    22100.273   0.73367965 
  902000       902000    1301.5119     1327.271    1136.5144    190.75654    162.17654   -79.920324    22100.273   0.73367965 
  903000       903000    1532.3303    1352.0947    1161.8752    190.21957    165.79543    559.19975    22100.273   0.73367965 
  904000       904000    1095.0118     1293.294    1116.0737     177.2203    159.25972   -615.19139    22100.273   0.73367965 
  905000       905000    983.61152     1307.622    1121.7001    185.92194    160.06258   -1005.2765    22100.273   0.73367965 
  906000       906000    1271.2666      1287.08    1120.7455    166.33452    159.92637   -49.062692    22100.273   0.73367965 
  907000       907000    987.51991    1309.1163    1103.9886    205.12767    157.53522    -997.7865    22100.273   0.73367965 
  908000       908000    1114.8972    1318.8792    1116.2798    202.59938    159.28913   -632.87547    22100.273   0.73367965 
  909000       909000    1547.2765    1329.6725    1146.3578    183.31469    163.58115    675.13903    22100.273   0.73367965 
  910000       910000      1287.84      1302.07    1126.9995    175.07054    160.81879   -44.150128    22100.273   0.73367965 
  911000       911000    1471.3564    1281.5374    1128.4975    153.03988    161.03256    588.93329    22100.273   0.73367965 
  912000       912000    968.11624    1304.6815    1123.5388    181.14267    160.32497    -1044.229    22100.273   0.73367965 
  913000       913000    1552.6399    1285.3109    1105.1152    180.19575    157.69598    829.41615    22100.273   0.73367965 
  914000       914000    859.06944    1307.9551    1120.4311      187.524     159.8815   -1392.7148    22100.273   0.73367965 
  915000       915000    895.24696    1316.5445    1107.8063    208.73822    158.07999   -1307.1198    22100.273   0.73367965 
  916000       916000    1134.2306    1327.0671    1132.1726    194.89441    161.55698   -598.29543    22100.273   0.73367965 
  917000       917000    1063.7165    1292.0734    1111.5201    180.55327    158.60993   -708.50105    22100.273   0.73367965 
  918000       918000    884.12772    1319.4809     1117.669    201.81187    159.48736   -1350.7288    22100.273   0.73367965 
  919000       919000     1216.947    1289.8752    1098.3217    191.55349    156.72658   -226.26752    22100.273   0.73367965 
  920000       920000     1050.715    1320.6478    1129.4071    191.24066    161.16235   -837.49477    22100.273   0.73367965 
  921000       921000    1065.4572    1295.4909    1136.0849    159.40601    162.11525   -713.70384    22100.273   0.73367965 
  922000       922000    973.55753    1290.1738     1104.329     185.8448    157.58379   -982.33504    22100.273   0.73367965 
  923000       923000    1390.7241     1321.032    1119.7603     201.2717    159.78578    216.22732    22100.273   0.73367965 
  924000       924000     1308.857    1309.7362    1130.8993    178.83696    161.37527   -2.7278298    22100.273   0.73367965 
  925000       925000    1456.9604    1279.4931    1103.7563    175.73685    157.50207    550.61095    22100.273   0.73367965 
  926000       926000    1147.1198    1294.5054    1120.9614    173.54404    159.95718   -457.27956    22100.273   0.73367965 
  927000       927000    1248.2574    1262.6186    1120.4361    142.18243    159.88222   -44.556937    22100.273   0.73367965 
  928000       928000    1203.9361    1285.6872       1113.6    172.08718    158.90674   -253.64136    22100.273   0.73367965 
  929000       929000    1168.8921    1329.7392    1131.9946    197.74461    161.53157     -499.045    22100.273   0.73367965 
  930000       930000    1302.2619    1276.2318    1106.4569    169.77488    157.88744    80.761115    22100.273   0.73367965 
  931000       931000    1717.3594    1321.1031    1130.9785     190.1246    161.38658    1229.4266    22100.273   0.73367965 
  932000       932000    1339.6869    1288.2779    1116.6804    171.59749    159.34629    159.50168    22100.273   0.73367965 
  933000       933000    1001.5764    1312.5951    1138.5165     174.0786    162.46222   -964.96801    22100.273   0.73367965 
  934000       934000    1069.5105    1310.2159    1130.7098    179.50614    161.34824   -746.81392    22100.273   0.73367965 
  935000       935000    1421.7233    1330.1214    1124.2801    205.84123    160.43075    284.20461    22100.273   0.73367965 
  936000       936000    1099.2409    1314.6791    1102.3591    212.31996     157.3027   -668.41944    22100.273   0.73367965 
  937000       937000    1447.8654    1337.6904    1144.9527    192.73774    163.38064     341.8293    22100.273   0.73367965 
  938000       938000    1074.3321    1299.4697    1126.5703    172.89936    160.75755   -698.51298    22100.273   0.73367965 
  939000       939000    1389.5818    1332.4051    1127.2801    205.12499    160.85883     177.3969    22100.273   0.73367965 
  940000       940000    1486.5038    1304.7469    1109.2768     195.4701    158.28982     563.9197    22100.273   0.73367965 
  941000       941000    1502.4284    1307.0985    1136.6524    170.44618    162.19622    606.03151    22100.273   0.73367965 
  942000       942000    1622.5369    1294.9683    1118.0179    176.95035    159.53715    1016.3161    22100.273   0.73367965 
  943000       943000    1711.8364    1266.2624    1081.6393    184.62302    154.34606    1382.4403    22100.273   0.73367965 
  944000       944000    1089.7219    1308.9162     1125.701    183.21525    160.63349   -680.07318    22100.273   0.73367965 
  945000       945000    1072.1023    1332.7343    1118.7751    213.95913    159.64521   -808.63808    22100.273   0.73367965 
  946000       946000    1308.0306    1297.6225    1142.9739    154.64857    163.09828    32.292176    22100.273   0.73367965 
  947000       947000    1223.3222    1356.9359    1158.8138    198.12212    165.35857   -414.55054    22100.273   0.73367965 
  948000       948000    1409.8685    1305.1032    1123.8923    181.21098     160.3754    325.04507    22100.273   0.73367965 
  949000       949000    1661.4712    1344.9176    1133.8299    211.08763    161.79347    982.14088    22100.273   0.73367965 
  950000       950000    1095.8157    1314.0354    1132.1641    181.87132    161.55576   -677.04949    22100.273   0.73367965 
  951000       951000     1301.445     1266.827    1093.8062    173.02082    156.08222     107.4058    22100.273   0.73367965 
  952000       952000    1152.6578    1292.3963    1135.1798    157.21652    161.98609   -433.55315    22100.273   0.73367965 
  953000       953000    1572.8709    1337.7352    1158.8585    178.87665    165.36496    729.53326    22100.273   0.73367965 
  954000       954000    1366.0342    1312.3654    1138.2165    174.14893    162.41941    166.51323    22100.273   0.73367965 
  955000       955000     1355.641    1330.5025    1122.1067    208.39582    160.12061    77.994715    22100.273   0.73367965 
  956000       956000    1848.2194    1318.9703    1133.1878    185.78242    161.70184    1642.0508    22100.273   0.73367965 
  957000       957000    1046.8791    1284.5362    1109.6479    174.88836    158.34277   -737.35622    22100.273   0.73367965 
  958000       958000    1584.0781    1305.7464    1106.2912    199.45519    157.86379    863.55317    22100.273   0.73367965 
  959000       959000    1014.1108    1318.4497    1126.7658     191.6839    160.78544    -944.2433    22100.273   0.73367965 
  960000       960000    1318.6927    1285.1747     1115.979    169.19573    159.24621    103.99302    22100.273   0.73367965 
  961000       961000    1015.7383    1324.3349    1109.9126    214.42226    158.38055   -957.45322    22100.273   0.73367965 
  962000       962000    1177.3182    1294.4085    1114.3951    180.01349    159.02018   -363.28509    22100.273   0.73367965 
  963000       963000    1175.1885    1322.8717    1113.5431    209.32859    158.89862   -458.20266    22100.273   0.73367965 
  964000       964000    1556.4324    1333.3992    1134.5552    198.84399    161.89697    691.98378    22100.273   0.73367965 
  965000       965000     1325.194    1283.8484    1132.2238    151.62461    161.56428    128.27893    22100.273   0.73367965 
  966000       966000    1876.9606    1317.0097    1119.6059    197.40384    159.76374    1737.3064    22100.273   0.73367965 
  967000       967000     1450.265    1330.4921    1153.0749    177.41719    164.53966    371.60794    22100.273   0.73367965 
  968000       968000    920.60903     1274.566    1101.7076     172.8584    157.20973   -1098.1887    22100.273   0.73367965 
  969000       969000    1642.2096    1299.9879    1113.2841    186.70388    158.86165    1061.7784    22100.273   0.73367965 
  970000       970000    1561.1394    1310.3919    1137.5371    172.85483    162.32246    777.97037    22100.273   0.73367965 
  971000       971000    1301.3722    1284.1404    1106.3013    177.83902    157.86524    53.463466    22100.273   0.73367965 
  972000       972000     1117.131    1307.8236    1126.7433    181.08026    160.78223   -591.64367    22100.273   0.73367965 
  973000       973000    1185.5296    1340.9394    1158.6825    182.25684    165.33985   -482.17528    22100.273   0.73367965 
  974000       974000    1346.9728     1321.274    1136.1308    185.14326    162.12179    79.733072    22100.273   0.73367965 
  975000       975000    896.48078    1295.1572    1103.5371    191.62012    157.47078   -1236.9353    22100.273   0.73367965 
  976000       976000    932.79046    1287.6656     1146.134    141.53161    163.54921   -1101.0373    22100.273   0.73367965 
  977000       977000    1468.6591    1323.9039    1135.2696    188.63431     161.9989    449.11808    22100.273   0.73367965 
  978000       978000    1115.5013    1253.0167    1094.6978    158.31885    156.20946   -426.65585    22100.273   0.73367965 
  979000       979000    1277.9855    1266.3417    1082.3335    184.00824    154.44511    36.126119    22100.273   0.73367965 
  980000       980000    1483.4811    1286.0515    1110.6492    175.40228    158.48566    612.54628    22100.273   0.73367965 
  981000       981000      1236.27    1304.0083    1112.2266     191.7817    158.71075   -210.16513    22100.273   0.73367965 
  982000       982000    1509.4871    1319.3182    1132.1301    187.18817     161.5509    590.01877    22100.273   0.73367965 
  983000       983000    1030.9188    1299.4746    1123.6652    175.80946    160.34299   -833.22256    22100.273   0.73367965 
  984000       984000     1093.439    1289.4285    1120.4413     168.9872    159.88296   -608.07796    22100.273   0.73367965 
  985000       985000    1259.4119    1319.7932    1125.0885    194.70476    160.54609   -187.33941    22100.273   0.73367965 
  986000       986000    1301.6471    1292.1879    1096.8022    195.38575    156.50974    29.348171    22100.273   0.73367965 
  987000       987000    1387.1884    1309.0725    1123.1403    185.93224     160.2681    242.36253    22100.273   0.73367965 
  988000       988000     1532.572    1261.2834    1100.2927    160.99073    157.00783    841.70119    22100.273   0.73367965 
  989000       989000    1347.1516    1320.1228    1147.4824    172.64036    163.74163    83.859533    22100.273   0.73367965 
  990000       990000    1269.9335    1289.1133    1139.9395    149.17381    162.66528   -59.507272    22100.273   0.73367965 
  991000       991000    1633.0835    1334.3532     1134.838    199.51522    161.93731    926.84198    22100.273   0.73367965 
  992000       992000    1113.2983    1348.2641    1163.9131    184.35097    166.08623   -729.00602    22100.273   0.73367965 
  993000       993000    1201.0358    1315.1029    1134.9997    180.10321    161.96039   -353.90501    22100.273   0.73367965 
  994000       994000    1265.3021    1327.9816    1125.6743    202.30729    160.62969   -194.46985    22100.273   0.73367965 
  995000       995000    986.75993    1318.4817    1093.9578    224.52385    156.10386   -1029.2015    22100.273   0.73367965 
  996000       996000     1657.681    1284.8192    1090.6175    194.20171    155.62721    1156.8429    22100.273   0.73367965 
  997000       997000    1049.3756    1293.6476    1099.2743    194.37331     156.8625   -757.87954    22100.273   0.73367965 
  998000       998000    1017.8053    1327.0659    1114.1103    212.95553    158.97955   -959.51341    22100.273   0.73367965 
  999000       999000    1271.4868    1298.3375    1131.1116    167.22587    161.40557   -83.306821    22100.273   0.73367965 
 1000000      1000000    1011.8585    1357.0191    1140.8656    216.15355    162.79743   -1070.8971    22100.273   0.73367965 
 1000001      1000001     1290.569    1356.4233    1145.8046    210.61872    163.50221   -204.31983    22100.273   0.73367965 
Loop time of 1570.47 on 24 procs for 1000000 steps with 2352 atoms

Performance: 55.016 ns/day, 0.436 hours/ns, 636.754 timesteps/s
92.9% CPU use with 24 MPI tasks x 1 OpenMP threads

MPI task timing breakdown:
Section |  min time  |  avg time  |  max time  |%varavg| %total
---------------------------------------------------------------
Pair    | 810.91     | 834.22     | 853.32     |  48.3 | 53.12
Bond    | 36.8       | 37.715     | 38.966     |   8.0 |  2.40
Kspace  | 197.73     | 231.49     | 266.49     | 121.6 | 14.74
Neigh   | 37.244     | 37.7       | 38.067     |   4.1 |  2.40
Comm    | 348.57     | 354.67     | 365.05     |  26.1 | 22.58
Output  | 0.042015   | 0.043832   | 0.076102   |   3.2 |  0.00
Modify  | 11.612     | 14.904     | 17.723     |  51.9 |  0.95
Other   |            | 59.72      |            |       |  3.80

Nlocal:    98 ave 113 max 82 min
Histogram: 1 0 2 4 5 6 1 3 1 1
Nghost:    5752.96 ave 5824 max 5687 min
Histogram: 1 3 0 5 3 5 4 1 1 1
Neighs:    59875.3 ave 67432 max 50924 min
Histogram: 1 0 3 3 3 6 2 2 1 3

Total # of neighbors = 1437008
Ave neighs/atom = 610.973
Ave special neighs/atom = 9.14286
Neighbor list builds = 22192
Dangerous builds = 0

write_data butane_afterr_nvt1.data
Ewald initialization ...
  using 12-bit tables for long-range coulomb (src/kspace.cpp:332)
  G vector (1/distance) = 0.189317
  estimated absolute RMS force accuracy = 0.00393399
  estimated relative force accuracy = 1.18471e-05
  KSpace vectors: actual max1d max3d = 128 4 364
                  kxmax kymax kzmax  = 4 4 4
Total wall time: 0:26:10
