LAMMPS (3 Mar 2020)
  using 1 OpenMP thread(s) per MPI task
units           real
atom_style      full
boundary        p p p


pair_style      lj/cut/coul/long 12.0
pair_modify     tail yes mix geometric
bond_style      harmonic
angle_style     harmonic
dihedral_style  opls

kspace_style    ewald 1.0e-5
#special_bonds   lj/coul 0.0 0.0 0.5

neighbor        2.0 bin
neigh_modify    every 1 delay 0 check yes

read_data       butane_afterr_nvt1_200K.data
  orthogonal box = (0 0 0) to (28.6278 28.6278 28.6278)
  2 by 3 by 4 MPI processor grid
  reading atoms ...
  2352 atoms
  reading velocities ...
  2352 velocities
  scanning bonds ...
  1 = max bonds/atom
  scanning angles ...
  6 = max angles/atom
  scanning dihedrals ...
  11 = max dihedrals/atom
  reading bonds ...
  2184 bonds
  reading angles ...
  4032 angles
  reading dihedrals ...
  4536 dihedrals
  4 = max # of 1-2 neighbors
  6 = max # of 1-3 neighbors
  9 = max # of 1-4 neighbors
  13 = max # of special neighbors
  special bonds CPU = 0.000979541 secs
  read_data CPU = 0.0415664 secs

group           mobile union all
2352 atoms in group mobile

#minimize 1.0e-8 1.0e-10 400000 400000
#write_data buate_after_min.data

#fix DEF all deform 1 x final 0.0 28.0629 y final 0.0 28.0629 z final 0.0 28.0629 units box
#run 1
#unfix DEF

thermo_style    custom step time enthalpy etotal ke pe temp press vol density
#thermo_modify   line multi
thermo          1000
thermo_modify   flush yes
timestep 1.0


## Equil NPT ##
#fix      NPT  all nvt temp 272 272 100 iso 1 1 1000
#restart 1000000 liqbut1.restart

#fix      NPT  all npt temp 160 160 50 iso 1 1 500
#dump myDump all atom 2000 butane_npt.lammpstrj

#run 5000000
#write_data ethanol_after_npt.data



fix 1 all nvt temp 200 200 100 # iso 1.0 1.0 1000.0
#dump            DUMPxyz all xyz 1 but1_clms_20ps.xyz
#dump            DUMP all custom 1000 mol.lammpstrj id type x y z fx fy fz mol

run 1000000
Ewald initialization ...
  using 12-bit tables for long-range coulomb (src/kspace.cpp:332)
  G vector (1/distance) = 0.188768
  estimated absolute RMS force accuracy = 0.0041484
  estimated relative force accuracy = 1.24928e-05
  KSpace vectors: actual max1d max3d = 128 4 364
                  kxmax kymax kzmax  = 4 4 4
Neighbor list info ...
  update every 1 steps, delay 0 steps, check yes
  max neighbors/atom: 2000, page size: 100000
  master list distance cutoff = 14
  ghost atom cutoff = 14
  binsize = 7, bins = 5 5 5
  1 neighbor lists, perpetual/occasional/extra = 1 0 0
  (1) pair lj/cut/coul/long, perpetual
      attributes: half, newton on
      pair build: half/bin/newton
      stencil: half/bin/3d/newton
      bin: standard
Per MPI rank memory allocation (min/avg/max) = 19.28 | 19.28 | 19.29 Mbytes
Step Time Enthalpy TotEng KinEng PotEng Temp Press Volume Density 
       0            0    1975.9958    1894.8079    1373.7014    521.10648    196.02227    237.27467     23461.94   0.69109889 
    1000         1000    1734.4912     1954.474    1399.2279    555.24613    199.66481   -642.90833     23461.94   0.69109889 
    2000         2000    1804.4586    1875.9598    1347.9403    528.01954    192.34625   -208.96505     23461.94   0.69109889 
    3000         3000    1942.1308    1913.5208    1371.4054    542.11543    195.69463    83.613667     23461.94   0.69109889 
    4000         4000    1632.8034    1962.0364    1394.2841    567.75231    198.95935   -962.19619     23461.94   0.69109889 
    5000         5000    2379.9791    1969.7409    1421.9096    547.83126    202.90141    1198.9368     23461.94   0.69109889 
    6000         6000    2379.8974    1939.6382    1397.1532    542.48498    199.36876    1286.6742     23461.94   0.69109889 
    7000         7000    2184.9135     1931.368    1386.6788    544.68918     197.8741    740.99629     23461.94   0.69109889 
    8000         8000    1923.5598    1923.9573     1363.368    560.58936    194.54772   -1.1618561     23461.94   0.69109889 
    9000         9000    2089.8845     1963.352    1417.4395    545.91252    202.26353    369.79618     23461.94   0.69109889 
   10000        10000    1922.6945    1918.1752    1391.0975    527.07773    198.50463    13.207821     23461.94   0.69109889 
   11000        11000    1882.7835    1962.1857    1387.5363     574.6494    197.99646   -232.05603     23461.94   0.69109889 
   12000        12000    2328.1965    1942.1896    1404.8774    537.31221    200.47097      1128.12     23461.94   0.69109889 
   13000        13000    2031.5118     1932.701    1390.0817    542.61937    198.35968    288.77818     23461.94   0.69109889 
   14000        14000    2529.6834    1982.7817    1408.2877    574.49399    200.95761     1598.341     23461.94   0.69109889 
   15000        15000     2113.242     1910.234    1367.2621     542.9719     195.1034    593.29868     23461.94   0.69109889 
   16000        16000    2140.7122    1995.8059     1431.025    564.78092    204.20214      423.494     23461.94   0.69109889 
   17000        17000    1255.1028    1957.6748    1422.4683    535.20652    202.98112   -2053.2933     23461.94   0.69109889 
   18000        18000    1972.7482    1892.9113    1398.8608    494.05051    199.61242    233.32649     23461.94   0.69109889 
   19000        19000    2240.9062    1935.1721    1402.8835    532.28854    200.18645    893.51965     23461.94   0.69109889 
   20000        20000      1651.21    1984.0205     1399.159    584.86152    199.65497   -972.65127     23461.94   0.69109889 
   21000        21000    1577.1588    1951.6648      1405.12    546.54477    200.50559    -1094.508     23461.94   0.69109889 
   22000        22000     1692.557    1854.3346    1379.6874    474.64727    196.87644   -472.80131     23461.94   0.69109889 
   23000        23000    2024.0697    1962.0258    1456.3853    505.64055    207.82096    181.32565     23461.94   0.69109889 
   24000        24000    1626.8565    1895.0406    1399.9436    495.09693    199.76694   -783.77817     23461.94   0.69109889 
   25000        25000    2247.3767    1975.6499    1406.1986    569.45137     200.6595    794.13174     23461.94   0.69109889 
   26000        26000    2142.7179    1955.5833    1375.8037    579.77958    196.32225     546.9082     23461.94   0.69109889 
   27000        27000    1965.4603     1895.166    1370.5932    524.57281    195.57874    205.43794     23461.94   0.69109889 
   28000        28000    2052.4679    1963.8366    1413.9235    549.91315    201.76181    259.02817     23461.94   0.69109889 
   29000        29000    2634.9811    1952.8129    1403.0459    549.76704    200.20962    1993.6624     23461.94   0.69109889 
   30000        30000    2132.2146    1977.6339    1407.9164    569.71754    200.90462    451.76809     23461.94   0.69109889 
   31000        31000    1904.6235    1969.3343    1400.5255    568.80878    199.84997   -189.11954     23461.94   0.69109889 
   32000        32000    1783.9509     1954.564    1410.4752    544.08881    201.26975   -498.62318     23461.94   0.69109889 
   33000        33000    1880.1576    1978.5774     1395.741    582.83638    199.16724   -287.63565     23461.94   0.69109889 
   34000        34000    1592.4509    1939.7514    1413.6524    526.09899    201.72313    -1014.999     23461.94   0.69109889 
   35000        35000    1856.9454    1973.3555    1422.8012     550.5543    203.02863   -340.21296     23461.94   0.69109889 
   36000        36000     2216.146    1886.7748    1397.6186    489.15616    199.43517    962.60006     23461.94   0.69109889 
   37000        37000    2020.1517      1910.28     1376.343    533.93708    196.39921    321.10408     23461.94   0.69109889 
   38000        38000    2134.1338    1959.4721    1399.1195    560.35256    199.64935    510.45542     23461.94   0.69109889 
   39000        39000    1962.1527    1967.2652    1426.1535    541.11166      203.507    -14.94153     23461.94   0.69109889 
   40000        40000    1913.9632    1910.0066    1394.5154    515.49125    198.99235    11.563163     23461.94   0.69109889 
   41000        41000    1814.1517    1984.9375    1413.1673    571.77024    201.65391   -499.12817     23461.94   0.69109889 
   42000        42000    2105.4187    1899.4516    1374.8578     524.5938    196.18728    601.94685     23461.94   0.69109889 
   43000        43000    2378.0322      1959.44    1418.5425    540.89742    202.42094    1223.3517     23461.94   0.69109889 
   44000        44000    1464.2747    1961.4451    1440.0292    521.41589    205.48701   -1452.9994     23461.94   0.69109889 
   45000        45000    2041.9554    1894.7058    1371.2055    523.50035    195.66611    430.34265     23461.94   0.69109889 
   46000        46000    1815.0008    1922.3552    1382.9952    539.35997    197.34846   -313.74719     23461.94   0.69109889 
   47000        47000    2123.3904    1989.0457    1437.1803    551.86541    205.08047    392.62776     23461.94   0.69109889 
   48000        48000    1789.9866    1970.3541    1425.0128    545.34127    203.34422    -527.1308     23461.94   0.69109889 
   49000        49000    1770.8904    1919.5492    1374.1642    545.38496    196.08831   -434.46101     23461.94   0.69109889 
   50000        50000    2363.6567    1919.3815    1387.7925    531.58893    198.03302    1298.4113     23461.94   0.69109889 
   51000        51000    1985.6711    1960.6748    1389.8808    570.79402      198.331    73.052679     23461.94   0.69109889 
   52000        52000    1974.7673    1990.6676     1430.981    559.68666    204.19586   -46.469354     23461.94   0.69109889 
   53000        53000    2102.5398    1940.9574     1398.976    541.98143    199.62886     472.2305     23461.94   0.69109889 
   54000        54000    1418.9883    1911.9048    1387.2073    524.69751    197.94951   -1440.5674     23461.94   0.69109889 
   55000        55000    2004.2939    1953.0003    1455.7246    497.27574    207.72668    149.90755     23461.94   0.69109889 
   56000        56000    1913.1084    1981.1686    1436.4969     544.6717    204.98296   -198.90864     23461.94   0.69109889 
   57000        57000    2387.7368    1917.2017    1395.1751    522.02661    199.08648    1375.1569     23461.94   0.69109889 
   58000        58000    2312.0023    1998.9144    1450.7354    548.17896    207.01474    915.01155     23461.94   0.69109889 
   59000        59000    1715.2751    1912.5299    1411.0635     501.4664     201.3537   -576.48461     23461.94   0.69109889 
   60000        60000    1148.5989    1865.3399    1341.4029    523.93705    191.41338   -2094.7028     23461.94   0.69109889 
   61000        61000    1892.4528    1977.0213    1431.7464    545.27491    204.30509   -247.15487     23461.94   0.69109889 
   62000        62000    1716.9759    1862.9335    1385.0685    477.86504    197.64431   -426.56691     23461.94   0.69109889 
   63000        63000    1611.5117    1961.3009    1395.0343    566.26655     199.0664   -1022.2723     23461.94   0.69109889 
   64000        64000    1557.1523    1996.9391    1393.9452    602.99396    198.91098   -1285.2939     23461.94   0.69109889 
   65000        65000    1204.0432      1931.55    1399.5705    531.97947     199.7137   -2126.1664     23461.94   0.69109889 
   66000        66000    2114.7001    2004.0653    1430.5058     573.5595    204.12805    323.33462     23461.94   0.69109889 
   67000        67000    2242.5342    1975.1221    1417.3366    557.78548    202.24885    781.52218     23461.94   0.69109889 
   68000        68000    1499.7821    1916.2737     1412.474    503.79969    201.55498   -1217.2125     23461.94   0.69109889 
   69000        69000      1698.75    1952.4032    1395.3353    557.06795    199.10934   -741.31101     23461.94   0.69109889 
   70000        70000    2128.1029    1946.3515    1406.4705    539.88103     200.6983    531.17523     23461.94   0.69109889 
   71000        71000    2245.0168    1987.8756    1449.1163    538.75924    206.78371    751.50509     23461.94   0.69109889 
   72000        72000    1832.3055    1934.8975    1405.1132    529.78435    200.50462   -299.82922     23461.94   0.69109889 
   73000        73000    2493.8561    1929.1126    1391.7644    537.34816     198.5998    1650.4845     23461.94   0.69109889 
   74000        74000     2082.628    1938.7966    1406.4741    532.32254    200.69882     420.3525     23461.94   0.69109889 
   75000        75000    1934.2367    1977.7942     1418.644    559.15015    202.43542   -127.29841     23461.94   0.69109889 
   76000        76000    1990.9202    1878.3557    1382.8663    495.48938    197.33007    328.97397     23461.94   0.69109889 
   77000        77000    2108.2851    1965.1605    1427.3267    537.83382     203.6744    418.28709     23461.94   0.69109889 
   78000        78000    2119.0385    1910.9932    1372.0636    538.92958    195.78856    608.02039     23461.94   0.69109889 
   79000        79000    1870.2955    2002.8643    1431.4989     571.3654    204.26977   -387.43749     23461.94   0.69109889 
   80000        80000    1962.1498    1954.9476    1412.7568    542.19074    201.59533    21.048775     23461.94   0.69109889 
   81000        81000    1673.1386     1902.658     1394.471    508.18705    198.98601   -670.77932     23461.94   0.69109889 
   82000        82000    2336.0126    1962.0394    1432.7636    529.27576    204.45023     1092.951     23461.94   0.69109889 
   83000        83000    2129.9419    1893.2938    1359.5867    533.70714    194.00815    691.61308     23461.94   0.69109889 
   84000        84000    1802.5079    1955.3693    1418.6442    536.72508    202.43545   -446.74321     23461.94   0.69109889 
   85000        85000    1641.0017    1939.7315    1367.1141    572.61744    195.08228    -873.0492     23461.94   0.69109889 
   86000        86000    1757.2894     1965.444    1418.8429    546.60107     202.4638   -608.33968     23461.94   0.69109889 
   87000        87000    1547.2343     1979.904     1444.761    535.14308    206.16221   -1264.4938     23461.94   0.69109889 
   88000        88000    2034.3037     1930.796    1422.0324    508.76363    202.91893     302.5053     23461.94   0.69109889 
   89000        89000    2201.8034    1980.9496    1410.0926    570.85703    201.21516    645.45351     23461.94   0.69109889 
   90000        90000    1598.1318    1977.1492    1436.1041    541.04507    204.92691   -1107.6926     23461.94   0.69109889 
   91000        91000     1242.658    1937.9859    1404.8641    533.12174    200.46908   -2032.1222     23461.94   0.69109889 
   92000        92000    1358.8802    1962.6532    1425.2134    537.43987    203.37284   -1764.5496     23461.94   0.69109889 
   93000        93000    2228.6122    1936.2957    1421.5251    514.77069    202.84653    854.30588     23461.94   0.69109889 
   94000        94000    1931.3726    1968.1501    1394.1047    574.04546    198.93374   -107.48366     23461.94   0.69109889 
   95000        95000    1923.0752    1861.0014    1366.5688     494.4326    195.00447    181.41315     23461.94   0.69109889 
   96000        96000    1885.7727    1960.0621    1385.9252    574.13695    197.76656    -217.1136     23461.94   0.69109889 
   97000        97000    2030.8114     1926.631    1409.0436    517.58742    201.06547    304.47116     23461.94   0.69109889 
   98000        98000    2093.0081    1972.5317    1372.8865    599.64526    195.90598    352.09695     23461.94   0.69109889 
   99000        99000    1928.0003     1994.601    1413.3013    581.29966    201.67304   -194.64318     23461.94   0.69109889 
  100000       100000    1739.5675     1919.169    1418.1113    501.05769     202.3594   -524.89204     23461.94   0.69109889 
  101000       101000     2339.465    1981.8141    1452.7108     529.1033    207.29662    1045.2485     23461.94   0.69109889 
  102000       102000    2190.4169    1953.7291    1381.4164    572.31269    197.12317    691.72922     23461.94   0.69109889 
  103000       103000      2391.01    1895.8166    1359.3166    536.50005    193.96961    1447.2214     23461.94   0.69109889 
  104000       104000    2114.0737    1930.1454    1387.0363    543.10911     197.9251    537.53756     23461.94   0.69109889 
  105000       105000    1567.8706    2000.3851    1439.9122    560.47286    205.47031     -1264.04     23461.94   0.69109889 
  106000       106000    1695.6172    1932.9547     1376.631    556.32369    196.44031    -693.6279     23461.94   0.69109889 
  107000       107000    2316.6171    1936.4879    1402.5372    533.95071    200.13704    1110.9419     23461.94   0.69109889 
  108000       108000    1962.8118    1954.2439     1402.469    551.77499     200.1273    25.039977     23461.94   0.69109889 
  109000       109000    1791.6452     1904.446    1367.2114    537.23464    195.09617   -329.66478     23461.94   0.69109889 
  110000       110000    1852.0005    1895.2754     1389.073    506.20247    198.21574   -126.47265     23461.94   0.69109889 
  111000       111000    1558.7831    1927.4999     1388.409    539.09086    198.12099   -1077.5889     23461.94   0.69109889 
  112000       112000    1741.5332     2023.669    1453.5773    570.09164    207.42028   -824.55238     23461.94   0.69109889 
  113000       113000     1964.951    1972.4014    1419.9329    552.46851    202.61934   -21.774138     23461.94   0.69109889 
  114000       114000    1752.0997    1982.5864    1425.4298    557.15669    203.40372   -673.60636     23461.94   0.69109889 
  115000       115000    2074.1307    1889.7198    1364.5183    525.20142    194.71188    538.94792     23461.94   0.69109889 
  116000       116000    1707.2116     1970.387    1408.7231    561.66384    201.01974    -769.1402     23461.94   0.69109889 
  117000       117000    1531.6731    1972.4949    1404.8966    567.59823    200.47372   -1288.3184     23461.94   0.69109889 
  118000       118000    1514.5321    1882.2655    1357.7639    524.50161    193.74804    -1074.715     23461.94   0.69109889 
  119000       119000    2025.3615    1923.2139    1383.1681    540.04576    197.37313    298.53035     23461.94   0.69109889 
  120000       120000     2723.934    1912.5233    1392.0373    520.48597    198.63874    2371.3788     23461.94   0.69109889 
  121000       121000    1898.3028    1945.3119    1384.0388    561.27311    197.49738   -137.38605     23461.94   0.69109889 
  122000       122000    2194.4841    1909.5194    1391.2834    518.23601    198.53115    832.82029     23461.94   0.69109889 
  123000       123000    2062.6505    1986.1317    1431.5706    554.56112       204.28    223.62894     23461.94   0.69109889 
  124000       124000    2269.4269    1927.2822    1386.1157    541.16658    197.79374    999.93097     23461.94   0.69109889 
  125000       125000    2002.7999    1903.2698    1397.7216    505.54817    199.44987    290.88036     23461.94   0.69109889 
  126000       126000     1565.203    1961.6553    1391.8463    569.80893    198.61148   -1158.6469     23461.94   0.69109889 
  127000       127000    2335.4998    1938.5564    1382.1469    556.40944    197.22742    1160.0824     23461.94   0.69109889 
  128000       128000      2308.88     1961.811    1420.3191    541.49187    202.67444    1014.3224     23461.94   0.69109889 
  129000       129000    2272.9274    1943.6532     1389.814    553.83921    198.32147    962.31641     23461.94   0.69109889 
  130000       130000    2036.2634    1966.8269    1413.8138     553.0131    201.74617     202.9307     23461.94   0.69109889 
  131000       131000    2128.5473    1942.6747    1377.1564    565.51824    196.51529    543.21986     23461.94   0.69109889 
  132000       132000    2081.7738    1972.9264    1420.7611    552.16526    202.73753    318.11072     23461.94   0.69109889 
  133000       133000    2297.0567    1945.6064    1436.3979    509.20848    204.96883     1027.127     23461.94   0.69109889 
  134000       134000    2027.7631      1957.04    1437.6324    519.40761    205.14499    206.69082     23461.94   0.69109889 
  135000       135000    2478.3986    1970.9569    1395.7209    575.23606    199.16437    1483.0177     23461.94   0.69109889 
  136000       136000     1921.936    2001.0282    1423.0056     578.0226     203.0578   -231.14997     23461.94   0.69109889 
  137000       137000    2180.1184    1938.2186    1418.8998    519.31885    202.47192    706.96138     23461.94   0.69109889 
  138000       138000    1721.6585    1911.7622    1398.3575    513.40472     199.5406   -555.58539     23461.94   0.69109889 
  139000       139000    2126.7614     1914.145    1375.5151    538.62985    196.28108    621.37962     23461.94   0.69109889 
  140000       140000    2372.6245    1938.1687    1405.7827    532.38605    200.60015    1269.7134     23461.94   0.69109889 
  141000       141000    2430.7539     1962.894    1410.6077    552.28624    201.28867    1367.3385     23461.94   0.69109889 
  142000       142000    2191.1379    1947.3462    1400.6582    546.68808     199.8689    712.49056     23461.94   0.69109889 
  143000       143000    2015.0017    1979.6012    1426.1986    553.40262    203.51343    103.45932     23461.94   0.69109889 
  144000       144000    1831.4187    1938.0705    1391.3104    546.76008    198.53501   -311.69386     23461.94   0.69109889 
  145000       145000    2256.6115    1968.9531    1407.7674     561.1857    200.88336    840.69267     23461.94   0.69109889 
  146000       146000    2018.1095    1973.3733    1425.2917    548.08168    203.38401    130.74309     23461.94   0.69109889 
  147000       147000    1817.1729    1976.4883    1414.3505    562.13777    201.82275   -465.60524     23461.94   0.69109889 
  148000       148000     1702.317    1914.3742    1390.0208    524.35336    198.35099   -619.74509     23461.94   0.69109889 
  149000       149000    1776.0014    1889.9453    1370.6089    519.33641    195.58098   -333.00538     23461.94   0.69109889 
  150000       150000    1979.5256    1942.4936    1396.1848    546.30885    199.23056    108.22749     23461.94   0.69109889 
  151000       151000    2353.1696    1967.1433    1409.9566    557.18669    201.19576    1128.1767     23461.94   0.69109889 
  152000       152000    2057.4686    1916.0363    1391.1653    524.87101     198.5143    413.34132     23461.94   0.69109889 
  153000       153000    1811.6199    1960.9148    1404.5751    556.33975    200.42783   -436.32028     23461.94   0.69109889 
  154000       154000    1725.9417    1971.1196    1433.6175    537.50215    204.57207   -716.54189     23461.94   0.69109889 
  155000       155000    1696.3116    1903.0065    1395.9822    507.02432    199.20165    -604.0737     23461.94   0.69109889 
  156000       156000    2211.3601    1983.1446    1418.7379    564.40664    202.44882     666.9687     23461.94   0.69109889 
  157000       157000    1827.5358    1932.0288    1381.8694    550.15933    197.18782   -305.38455     23461.94   0.69109889 
  158000       158000    2280.8583    1990.3444    1430.4348    559.90962    204.11793    849.03795     23461.94   0.69109889 
  159000       159000    2179.2933    1969.8442    1404.6779    565.16623    200.44251    612.12298     23461.94   0.69109889 
  160000       160000    1725.1246    1945.7896    1403.8744    541.91527    200.32784   -644.90207     23461.94   0.69109889 
  161000       161000     2409.259    1969.8004    1430.2233    539.57706    204.08774    1284.3347     23461.94   0.69109889 
  162000       162000    2004.4077    1917.9868    1408.5157    509.47112    200.99014    252.56831     23461.94   0.69109889 
  163000       163000    2174.1158    1961.5488     1411.493    550.05585    201.41499    621.23517     23461.94   0.69109889 
  164000       164000    1522.9719    1858.6238    1384.6795    473.94428     197.5888   -980.95533     23461.94   0.69109889 
  165000       165000    2183.0992    1962.5759    1420.1967    542.37924    202.65698    644.48757     23461.94   0.69109889 
  166000       166000    1717.6842    1936.7398    1404.6543    532.08556    200.43913    -640.1984     23461.94   0.69109889 
  167000       167000    1843.4424    1932.1317    1389.6675    542.46424    198.30057   -259.19808     23461.94   0.69109889 
  168000       168000    1486.0069    1971.1883    1420.1822    551.00616    202.65491   -1417.9612     23461.94   0.69109889 
  169000       169000    2178.4314    1920.4386    1365.9357    554.50281    194.91414    753.99402     23461.94   0.69109889 
  170000       170000    2211.3337     1970.095    1404.7356    565.35943    200.45074    705.02938     23461.94   0.69109889 
  171000       171000    2123.1877    1945.6089     1408.514    537.09499     200.9899    518.98068     23461.94   0.69109889 
  172000       172000     2308.963    1929.8345    1390.1139    539.72062    198.36427    1108.0173     23461.94   0.69109889 
  173000       173000    2011.3288     1946.317    1406.4896    539.82735    200.70103     189.9995     23461.94   0.69109889 
  174000       174000    2141.3635    1956.3167    1414.5929    541.72382    201.85734    540.80611     23461.94   0.69109889 
  175000       175000    1740.9276     1947.614    1408.1902    539.42382     200.9437   -604.04898     23461.94   0.69109889 
  176000       176000    1745.4091    1944.0102    1389.9744    554.03582    198.34437   -580.41932     23461.94   0.69109889 
  177000       177000    1916.1851    1931.5248    1383.8526    547.67221     197.4708   -44.830721     23461.94   0.69109889 
  178000       178000    1624.6708    1989.2109    1452.6498    536.56112    207.28792   -1065.3825     23461.94   0.69109889 
  179000       179000    2408.4692    1905.9959    1375.5337    530.46221    196.28373    1468.4973     23461.94   0.69109889 
  180000       180000    1791.1247    1943.8043    1386.6924    557.11198    197.87603   -446.21201     23461.94   0.69109889 
  181000       181000    2101.9728    1909.1287    1386.2963    522.83242    197.81951    563.59416     23461.94   0.69109889 
  182000       182000    1875.9902    1912.0608    1406.8061    505.25472    200.74619   -105.41766     23461.94   0.69109889 
  183000       183000    2081.1458    1973.0083    1403.6791    569.32923    200.29998    316.03593     23461.94   0.69109889 
  184000       184000    1345.6195     1914.804    1379.6167    535.18725    196.86637   -1663.4633     23461.94   0.69109889 
  185000       185000    2493.1939    2010.9387    1422.5952    588.34348    202.99924    1409.4092     23461.94   0.69109889 
  186000       186000     1885.123    1918.9672    1388.1277    530.83951    198.08085    -98.91097     23461.94   0.69109889 
  187000       187000    1905.2586    1881.1525    1368.7816    512.37087    195.32023    70.451246     23461.94   0.69109889 
  188000       188000     1697.636    1970.2384    1382.0857    588.15271    197.21867   -796.69086     23461.94   0.69109889 
  189000       189000    2205.3656    1909.9057     1346.736    563.16967     192.1744    863.49289     23461.94   0.69109889 
  190000       190000    1927.1043     1954.286    1411.5118    542.77423    201.41767   -79.439434     23461.94   0.69109889 
  191000       191000    1792.7586    1889.5615    1371.3498    518.21171     195.6867   -282.91021     23461.94   0.69109889 
  192000       192000    2268.4461    1926.9312    1428.2204    498.71076    203.80194    998.09037     23461.94   0.69109889 
  193000       193000    2200.9206    2021.5222    1418.5954    602.92681    202.42848    524.29883     23461.94   0.69109889 
  194000       194000    1763.3734    1917.3593    1390.2157    527.14365    198.37879    -450.0296     23461.94   0.69109889 
  195000       195000    1649.8237    1996.1373    1438.5637    557.57362    205.27789   -1012.1149     23461.94   0.69109889 
  196000       196000    1785.3555    1964.6573     1402.851    561.80623    200.18182   -524.01635     23461.94   0.69109889 
  197000       197000    1771.5982    1910.7627    1378.2829    532.47977    196.67604   -406.71348     23461.94   0.69109889 
  198000       198000     1728.635    1975.5437    1429.4199    546.12375     203.9731   -721.60006     23461.94   0.69109889 
  199000       199000    1876.0772    1904.8977    1360.8104    544.08738    194.18276   -84.229019     23461.94   0.69109889 
  200000       200000      2264.66    1945.4172    1387.4182    557.99906     197.9796    932.99921     23461.94   0.69109889 
  201000       201000    2015.0146    1916.0453    1373.3501    542.69517    195.97214    289.24169     23461.94   0.69109889 
  202000       202000    2422.7356    1959.9895    1400.4365      559.553    199.83727    1352.3931     23461.94   0.69109889 
  203000       203000    2447.5244    1940.5497    1395.7224    544.82729    199.16458    1481.6529     23461.94   0.69109889 
  204000       204000    1380.5068    1940.1094    1377.0785    563.03098    196.50416   -1635.4601     23461.94   0.69109889 
  205000       205000    2433.7311    1969.3403    1385.8094    583.53092    197.75003       1357.2     23461.94   0.69109889 
  206000       206000    2372.4916    1954.2283     1427.555    526.67336    203.70698    1222.3902     23461.94   0.69109889 
  207000       207000    2030.3839    1929.7278    1426.1867    503.54109    203.51173    294.17129     23461.94   0.69109889 
  208000       208000     1817.203    1931.0079    1379.5734    551.43457    196.86018   -332.59928     23461.94   0.69109889 
  209000       209000     1985.845    1955.0029    1402.5941    552.40877    200.14516    90.137112     23461.94   0.69109889 
  210000       210000    2128.5107    1883.6599    1379.9382    503.72174    196.91223    715.58573     23461.94   0.69109889 
  211000       211000    1877.9693    1930.4515    1392.7723    537.67914    198.74362   -153.38125     23461.94   0.69109889 
  212000       212000    1724.5885    2005.4443    1436.2653    569.17892    204.94992   -820.81176     23461.94   0.69109889 
  213000       213000    1979.2047    1944.3109    1389.6533    554.65761    198.29854    101.97851     23461.94   0.69109889 
  214000       214000    1780.0768    1930.1365    1417.5006    512.63582    202.27226   -438.55513     23461.94   0.69109889 
  215000       215000    2102.8579    1961.2711     1388.379    572.89203    198.11672    413.79274     23461.94   0.69109889 
  216000       216000    1971.9609     1973.882    1418.9524    554.92954    202.47943   -5.6145333     23461.94   0.69109889 
  217000       217000    1801.7835     1928.219    1405.2249    522.99403    200.52056   -369.51236     23461.94   0.69109889 
  218000       218000     2122.839    1908.5102    1399.2636    509.24664     199.6699      626.384     23461.94   0.69109889 
  219000       219000    2718.6649    1975.2031    1403.1157     572.0874    200.21958    2172.7954     23461.94   0.69109889 
  220000       220000    2335.7498    1928.9285    1426.3617    502.56677     203.5367    1188.9508     23461.94   0.69109889 
  221000       221000    1758.8367    1949.6824    1391.3167    558.36568    198.53591   -557.75383     23461.94   0.69109889 
  222000       222000    1807.7519    1956.5864    1422.5679    534.01848    202.99535   -434.97454     23461.94   0.69109889 
  223000       223000    1678.0602    1936.6278    1399.1437    537.48415    199.65279    -755.6737     23461.94   0.69109889 
  224000       224000    1882.5957     1932.492    1402.4876    530.00444    200.12995   -145.82396     23461.94   0.69109889 
  225000       225000    1853.3412    1994.6833    1402.2261    592.45721    200.09264   -413.07755     23461.94   0.69109889 
  226000       226000    1960.5664    1950.4523    1407.0429    543.40949    200.77997    29.558747     23461.94   0.69109889 
  227000       227000    2157.2768    1912.2466    1362.0694     550.1772    194.36242    716.11012     23461.94   0.69109889 
  228000       228000    2040.0426    1933.9876    1402.6055     531.3821    200.14678    309.94973     23461.94   0.69109889 
  229000       229000     2496.177    1968.5906    1425.5528    543.03777    203.42128    1541.8913     23461.94   0.69109889 
  230000       230000    2232.3404     1955.601    1419.6543    535.94671    202.57958    808.78144     23461.94   0.69109889 
  231000       231000    2406.5139    1914.8035    1375.8734    538.93009    196.33221    1437.0423     23461.94   0.69109889 
  232000       232000    1861.3734    1917.3381    1379.5135    537.82468    196.85163   -163.55904     23461.94   0.69109889 
  233000       233000    1752.6299    1953.0077    1420.5316     532.4761    202.70478   -585.61174     23461.94   0.69109889 
  234000       234000     2411.406    1970.1339    1394.4137    575.72027    198.97783    1289.6345     23461.94   0.69109889 
  235000       235000    1892.5928    1932.9999    1374.2867     558.7132    196.10579   -118.09149     23461.94   0.69109889 
  236000       236000    1463.7795    1947.8254    1412.7827    535.04263    201.59903   -1414.6425     23461.94   0.69109889 
  237000       237000    2069.2037     1951.104    1404.0597     547.0443    200.35429    345.15087     23461.94   0.69109889 
  238000       238000    1915.9839    1940.8604    1405.2399    535.62047     200.5227   -72.702428     23461.94   0.69109889 
  239000       239000    1905.1002    1933.7411    1371.2784    562.46267    195.67652   -83.704222     23461.94   0.69109889 
  240000       240000    1694.3901    1936.6518    1402.8941    533.75767    200.18796   -708.01889     23461.94   0.69109889 
  241000       241000    2402.4723    2014.0793    1478.5339    535.54535     210.9815    1135.0935     23461.94   0.69109889 
  242000       242000    1800.5551    1904.3148    1363.9036    540.41127    194.62415   -303.24171     23461.94   0.69109889 
  243000       243000    1540.6704    1936.0716    1418.2397    517.83187    202.37773    -1155.575     23461.94   0.69109889 
  244000       244000    1832.3842    1964.3291    1411.3556    552.97355    201.39539   -385.61425     23461.94   0.69109889 
  245000       245000     2633.936     1969.292    1416.0296    553.26238    202.06235    1942.4476     23461.94   0.69109889 
  246000       246000    2528.7749      1935.43    1386.1553    549.27472    197.79939    1734.0731     23461.94   0.69109889 
  247000       247000    1525.4355    2018.7293     1436.102    582.62721    204.92662   -1441.6699     23461.94   0.69109889 
  248000       248000    2080.3427    1929.5751    1383.3933    546.18174    197.40527    440.62406     23461.94   0.69109889 
  249000       249000     2024.114    1942.5143    1392.7196    549.79472     198.7361     238.4783     23461.94   0.69109889 
  250000       250000    1934.5923    1972.3831    1402.8581      569.525    200.18282     -110.445     23461.94   0.69109889 
  251000       251000    1479.4635    1898.9417    1360.3763    538.56542    194.12082   -1225.9409     23461.94   0.69109889 
  252000       252000    1779.6163    1951.0185    1404.5552    546.46328    200.42499   -500.92943     23461.94   0.69109889 
  253000       253000    1925.9413    1931.5485    1391.4518    540.09674    198.55518   -16.387394     23461.94   0.69109889 
  254000       254000    1727.7898     1970.914    1402.0487    568.86528    200.06733   -710.53972     23461.94   0.69109889 
  255000       255000    2173.4893    2004.9672     1455.821     549.1462    207.74044    492.51232     23461.94   0.69109889 
  256000       256000    2450.5887    1949.4309    1414.9292    534.50173    201.90533    1464.6528     23461.94   0.69109889 
  257000       257000    1846.2633    1929.2485    1353.6761    575.57238    193.16474   -242.52757     23461.94   0.69109889 
  258000       258000    2134.0814    1982.3745    1426.6317    555.74274    203.57524    443.36922     23461.94   0.69109889 
  259000       259000    2039.8209    1926.9725    1398.1766    528.79582     199.5148    329.80386     23461.94   0.69109889 
  260000       260000     2298.178     1954.802    1392.2677    562.53434    198.67161    1003.5294     23461.94   0.69109889 
  261000       261000    2251.4125    2021.9589     1425.218    596.74096     203.3735    670.58672     23461.94   0.69109889 
  262000       262000    1582.5427    1923.7534    1441.0419    482.71154    205.63152   -997.20133     23461.94   0.69109889 
  263000       263000    1465.5624    1988.2103    1421.9308    566.27954    202.90443   -1527.4586     23461.94   0.69109889 
  264000       264000    1900.6087     1952.105    1417.7499    534.35508    202.30783   -150.49981     23461.94   0.69109889 
  265000       265000    2756.0622     1987.317    1428.2366    559.08036    203.80425    2246.6872     23461.94   0.69109889 
  266000       266000    1594.4554    1965.2758    1393.6968    571.57899    198.87554   -1083.7367     23461.94   0.69109889 
  267000       267000    2056.3566    1914.2821    1382.3783     531.9038    197.26043     415.2181     23461.94   0.69109889 
  268000       268000     1898.953    1913.0069    1372.9584    540.04846    195.91625    -41.07288     23461.94   0.69109889 
  269000       269000    2368.5479    1997.2818    1437.3605    559.92128     205.1062    1085.0391     23461.94   0.69109889 
  270000       270000    1900.8861     1927.226    1414.2961    512.92997    201.81498     -76.9796     23461.94   0.69109889 
  271000       271000    2007.5922    1957.0451    1423.6572    533.38784    203.15079    147.72589     23461.94   0.69109889 
  272000       272000    2159.6763     1907.745    1360.5973    547.14778    194.15236    736.27864     23461.94   0.69109889 
  273000       273000    2134.2881    1975.6104    1409.2417    566.36876    201.09374     463.7414     23461.94   0.69109889 
  274000       274000    1863.8824    1924.0697    1407.9757    516.09403    200.91308    -175.8998     23461.94   0.69109889 
  275000       275000    2562.2804    1953.2364    1389.2683     563.9681    198.24361    1779.9543     23461.94   0.69109889 
  276000       276000    2198.5398     1959.958    1399.2429    560.71508    199.66695    697.26455     23461.94   0.69109889 
  277000       277000    1573.6136    1975.3082    1403.8798    571.42836    200.32862   -1173.9678     23461.94   0.69109889 
  278000       278000    2190.6327     1926.833     1396.499    530.33397     199.2754    770.96489     23461.94   0.69109889 
  279000       279000    2408.4749    1931.1248    1358.2533    572.87149    193.81788    1395.0738     23461.94   0.69109889 
  280000       280000    1917.4024    1956.8697    1384.4477    572.42198    197.55572   -115.34459     23461.94   0.69109889 
  281000       281000    2422.7325    1972.7973    1435.3186    537.47879    204.81482    1314.9528     23461.94   0.69109889 
  282000       282000    2556.4302    1964.5578    1436.9834    527.57439    205.05238    1729.7699     23461.94   0.69109889 
  283000       283000    2526.5314    1898.0888    1406.6695    491.41935     200.7267    1836.6473     23461.94   0.69109889 
  284000       284000    2020.8435    1967.6382    1427.5587    540.07947    203.70751    155.49477     23461.94   0.69109889 
  285000       285000    2017.1978    1911.3933    1371.4829    539.91035     195.7057    309.21783     23461.94   0.69109889 
  286000       286000    2113.4307    1991.1001    1423.8042    567.29588    203.17176    357.51578     23461.94   0.69109889 
  287000       287000    2290.5103    1978.7983    1425.7063    553.09201    203.44317    910.99043     23461.94   0.69109889 
  288000       288000    1699.2355     1951.991    1442.1381    509.85288    205.78794   -738.68749     23461.94   0.69109889 
  289000       289000    1626.3662     1942.415    1389.0085    553.40649    198.20654    -923.6647     23461.94   0.69109889 
  290000       290000    2346.8776    1968.6388    1421.5155    547.12334    202.84517    1105.4173     23461.94   0.69109889 
  291000       291000    2373.7047    2010.4973    1433.5525     576.9448     204.5628    1061.4876     23461.94   0.69109889 
  292000       292000    1917.7389    1905.2755    1364.9719     540.3036     194.7766    36.424946     23461.94   0.69109889 
  293000       293000    1551.2586    1924.0481    1414.9628    509.08527    201.91012   -1089.4915     23461.94   0.69109889 
  294000       294000    1674.6075    1969.8821    1373.7922    596.08985    196.03523   -862.95128     23461.94   0.69109889 
  295000       295000    1669.9896    1910.0419     1366.184     543.8579    194.94956   -701.56203     23461.94   0.69109889 
  296000       296000    1357.4281    1993.4096    1447.2202    546.18934    206.51314   -1858.6801     23461.94   0.69109889 
  297000       297000    1559.1218     1990.059    1421.8256    568.23334    202.88943   -1259.4304     23461.94   0.69109889 
  298000       298000    1527.1003     1919.372       1363.1    556.27209    194.50948   -1146.4291     23461.94   0.69109889 
  299000       299000    1745.5525     1976.099     1440.181    535.91794    205.50867   -673.78096     23461.94   0.69109889 
  300000       300000    2024.9003    1973.8981    1416.1029    557.79519    202.07281    149.05581     23461.94   0.69109889 
  301000       301000    1770.2537    1908.0388    1380.1505    527.88831    196.94253   -402.68227     23461.94   0.69109889 
  302000       302000    1967.7226    1993.0076    1426.3167    566.69097    203.53028   -73.896351     23461.94   0.69109889 
  303000       303000    2092.1237    1916.6794    1369.1517     547.5277    195.37304    512.74282     23461.94   0.69109889 
  304000       304000    2167.6022    1986.0195    1425.0499    560.96962    203.34952    530.68216     23461.94   0.69109889 
  305000       305000     2145.098    1976.8312    1399.0013    577.82996    199.63247    491.76594     23461.94   0.69109889 
  306000       306000    1877.8857    1983.7583    1417.2598    566.49849     202.2379   -309.41666     23461.94   0.69109889 
  307000       307000    1655.0073    1936.4311    1392.3165    544.11465    198.67857   -822.47167     23461.94   0.69109889 
  308000       308000    2266.7679     1967.132    1433.1877     533.9443    204.51074    875.69746     23461.94   0.69109889 
  309000       309000    2436.9682    1963.0281    1407.4747    555.55338     200.8416    1385.1078     23461.94   0.69109889 
  310000       310000    2208.5621    1917.8863    1368.7331    549.15314    195.31331    849.51114     23461.94   0.69109889 
  311000       311000     2155.336    1996.1727    1427.6906    568.48205    203.72634    465.16102     23461.94   0.69109889 
  312000       312000    2318.0297    1914.4876      1405.22    509.26762    200.51986    1179.3673     23461.94   0.69109889 
  313000       313000    2198.5155    1956.0583    1414.2923    541.76599    201.81444    708.59048     23461.94   0.69109889 
  314000       314000    1757.1606    1915.8562    1369.1998    546.65639     195.3799   -463.79397     23461.94   0.69109889 
  315000       315000    2105.6831    1954.3729    1401.9475    552.42541    200.05289    442.20973     23461.94   0.69109889 
  316000       316000    2162.1567     1997.207    1406.8871    590.31987    200.75775    482.07179     23461.94   0.69109889 
  317000       317000    2006.4384    1941.6213    1400.5433    541.07804    199.85251    189.43032     23461.94   0.69109889 
  318000       318000    2175.6189    1981.0765    1412.3275    568.74902    201.53408    568.55742     23461.94   0.69109889 
  319000       319000     1624.046    1894.6766    1390.0827    504.59394    198.35982    -790.9282     23461.94   0.69109889 
  320000       320000    2167.6836    1941.1678    1400.1441     541.0237    199.79554    662.00113     23461.94   0.69109889 
  321000       321000    1636.8601    1977.6335     1408.987    568.64653    201.05739   -995.92334     23461.94   0.69109889 
  322000       322000    1653.6222    1982.6375    1436.5813    546.05616    204.99501    -961.5596     23461.94   0.69109889 
  323000       323000     2115.311    1911.6396    1395.8162    515.82345    199.17797    595.23738     23461.94   0.69109889 
  324000       324000     2005.078    1934.4441    1402.5614    531.88264    200.14049    206.43031     23461.94   0.69109889 
  325000       325000    2152.5755    1969.1856    1420.8276    548.35802    202.74701    535.96386     23461.94   0.69109889 
  326000       326000    1710.4813    2041.4623    1471.9076    569.55473    210.03594   -967.30464     23461.94   0.69109889 
  327000       327000    1844.1717    1972.8336    1437.3472    535.48638     205.1043   -376.01937     23461.94   0.69109889 
  328000       328000    1880.4866    1915.7714    1378.5903    537.18106     196.7199   -103.12097     23461.94   0.69109889 
  329000       329000    1778.2983    1929.0409    1392.8072    536.23368     198.7486   -440.55097     23461.94   0.69109889 
  330000       330000    2368.3639    1942.9245    1400.2395    542.68496    199.80916    1243.3631     23461.94   0.69109889 
  331000       331000    2016.5005    1926.1721    1413.9542    512.21783     201.7662    263.98835     23461.94   0.69109889 
  332000       332000    1682.4446    1913.1047    1405.2903    507.81435    200.52989   -674.11289     23461.94   0.69109889 
  333000       333000    1832.8225    1923.8749    1402.3467    521.52828    200.10984   -266.10409     23461.94   0.69109889 
  334000       334000    2019.7032    1958.9072    1387.6896    571.21766    198.01833     177.6785     23461.94   0.69109889 
  335000       335000    1815.5658    1886.4041    1390.2938    496.11036    198.38994   -207.02786     23461.94   0.69109889 
  336000       336000    1943.7731    1940.4951    1405.4226    535.07248    200.54877    9.5802682     23461.94   0.69109889 
  337000       337000    1956.2685    1985.4891     1417.977    567.51214    202.34024   -85.398488     23461.94   0.69109889 
  338000       338000    1730.0179    1894.2489    1380.7964    513.45255     197.0347   -479.97149     23461.94   0.69109889 
  339000       339000    1544.4489    1913.3986     1383.977    529.42161    197.48856   -1078.2696     23461.94   0.69109889 
  340000       340000    1890.7309    1941.8236    1420.8322    520.99141    202.74767   -149.32035     23461.94   0.69109889 
  341000       341000     2383.189    1974.4218    1399.8754    574.54645     199.7572    1194.6377     23461.94   0.69109889 
  342000       342000    2117.6146    1888.0419    1380.6641    507.37782    197.01582    670.93482     23461.94   0.69109889 
  343000       343000    1873.3759     1939.892    1395.0848    544.80721     199.0736   -194.39593     23461.94   0.69109889 
  344000       344000    1620.4543    1965.2266    1395.9505    569.27602    199.19714   -1007.6102     23461.94   0.69109889 
  345000       345000    1852.3458    1910.6695    1390.4243    520.24516    198.40857   -170.45304     23461.94   0.69109889 
  346000       346000    2659.0302    1946.9693     1389.798    557.17126     198.3192    2081.0251     23461.94   0.69109889 
  347000       347000    2365.2743    1984.1038    1406.9419    577.16189    200.76557    1113.9854     23461.94   0.69109889 
  348000       348000    2088.0871    1940.1648     1411.255    528.90981    201.38103    432.30861     23461.94   0.69109889 
  349000       349000    1668.8576     1923.176    1373.6594    549.51667    196.01627   -743.25532     23461.94   0.69109889 
  350000       350000    1233.9628    1939.3506    1406.1349    533.21566    200.65041   -2061.5228     23461.94   0.69109889 
  351000       351000    1469.4785    1901.0451    1396.0373    505.00783    199.20952   -1261.2698     23461.94   0.69109889 
  352000       352000    2366.5735    1957.7591    1413.7441    544.01498    201.73621    1194.7759     23461.94   0.69109889 
  353000       353000    2032.0138    1970.7648    1417.5298    553.23497    202.27643    179.00269     23461.94   0.69109889 
  354000       354000    2094.8158    1987.6223    1409.7747    577.84759     201.1698    313.27691     23461.94   0.69109889 
  355000       355000    1971.1016    1923.5312    1372.9494    550.58182    195.91496    139.02607     23461.94   0.69109889 
  356000       356000    1848.5015    1982.9078    1422.7131    560.19473    203.01606   -392.80759     23461.94   0.69109889 
  357000       357000    1842.1786    1944.9698    1437.5347    507.43513    205.13105   -300.41129     23461.94   0.69109889 
  358000       358000    2047.0457     1923.889    1380.0141    543.87483    196.92307    359.93037     23461.94   0.69109889 
  359000       359000    2245.2352    1900.6217    1355.7785    544.84316    193.46474    1007.1462     23461.94   0.69109889 
  360000       360000     2470.071    1919.4805    1421.3717    498.10873    202.82465    1609.1219     23461.94   0.69109889 
  361000       361000    1814.8876    1953.2148    1406.9497    546.26508    200.76668   -404.26662     23461.94   0.69109889 
  362000       362000     2093.505    1928.0473    1401.1066    526.94064    199.93289    483.55645     23461.94   0.69109889 
  363000       363000    2218.6181    1978.0422     1434.239    543.80325    204.66076    703.09208     23461.94   0.69109889 
  364000       364000    1819.4002    1900.9693    1406.3777    494.59158    200.68506   -238.38889     23461.94   0.69109889 
  365000       365000    1679.1197    1967.0113    1422.1462    544.86509    202.93516   -841.37419     23461.94   0.69109889 
  366000       366000    1303.6028    1926.8895    1407.0334    519.85617    200.77862   -1821.5791     23461.94   0.69109889 
  367000       367000     1646.026    1936.1594    1384.4691    551.69029    197.55879   -847.92613     23461.94   0.69109889 
  368000       368000    1760.7021    1882.8909    1368.5809    514.30999    195.29159   -357.10144     23461.94   0.69109889 
  369000       369000    2054.9175    1938.8208    1385.4406    553.38025    197.69741    339.29704     23461.94   0.69109889 
  370000       370000    1423.4981    1918.8543    1394.3029    524.55141    198.96202   -1447.6973     23461.94   0.69109889 
  371000       371000    2156.8954    1934.3237    1420.1488     514.1749    202.65015    650.47428     23461.94   0.69109889 
  372000       372000    2063.0001    1909.9557    1368.7135    541.24218    195.31051    447.27827     23461.94   0.69109889 
  373000       373000    1920.9751    1964.3349    1399.8966    564.43835    199.76022   -126.72066     23461.94   0.69109889 
  374000       374000    1861.0812    1952.3221    1398.8638     553.4583    199.61286   -266.65512     23461.94   0.69109889 
  375000       375000     2413.845    1887.4406     1351.118    536.32261     192.7997    1538.4369     23461.94   0.69109889 
  376000       376000    2444.0031    1987.7764    1448.5548    539.22165    206.70357    1333.3399     23461.94   0.69109889 
  377000       377000    1935.4556    1959.1333     1398.653    560.48033    199.58277   -69.199111     23461.94   0.69109889 
  378000       378000     1714.083    1959.3306    1427.1223     532.2083    203.64523   -716.74544     23461.94   0.69109889 
  379000       379000    1901.2153    1945.1821    1384.8805    560.30157    197.61749    -128.4947     23461.94   0.69109889 
  380000       380000    1831.7039    1943.0637    1386.7464    556.31737    197.88374   -325.45351     23461.94   0.69109889 
  381000       381000    2124.6494     1928.521    1382.0184    546.50255    197.20908    573.19278     23461.94   0.69109889 
  382000       382000    1870.0891    1930.7847    1391.9958    538.78891    198.63281   -177.38524     23461.94   0.69109889 
  383000       383000    1555.7558     1935.825    1355.6731    580.15187     193.4497   -1110.7666     23461.94   0.69109889 
  384000       384000    1930.0419      1927.77    1401.1243    526.64572    199.93542    6.6396402     23461.94   0.69109889 
  385000       385000    2139.9461    1982.7992    1427.9162    554.88304    203.75852     459.2679     23461.94   0.69109889 
  386000       386000      2026.42    1933.3969    1400.9722     532.4247    199.91371    271.86372     23461.94   0.69109889 
  387000       387000    2201.1714    1898.5439    1395.8485    502.69537    199.18258    884.44045     23461.94   0.69109889 
  388000       388000    2099.0896    1952.8388    1402.8669    549.97195    200.18408    427.42335     23461.94   0.69109889 
  389000       389000    1848.4798    1949.7282    1404.4406    545.28758    200.40864   -295.90214     23461.94   0.69109889 
  390000       390000    2283.4559    1919.8627     1378.223    541.63976    196.66748    1062.6149     23461.94   0.69109889 
  391000       391000    1793.6257    1929.9362     1389.886    540.05011    198.33176   -398.37253     23461.94   0.69109889 
  392000       392000    1933.4433    2018.6204    1449.8074    568.81303    206.88232   -248.93335     23461.94   0.69109889 
  393000       393000    1580.6867    1926.7477    1411.2762    515.47142    201.38406   -1011.3763     23461.94   0.69109889 
  394000       394000      1596.52    1884.3768    1410.1164    474.26043    201.21855    -841.2725     23461.94   0.69109889 
  395000       395000    1487.6415    1964.7024    1403.9905    560.71194    200.34441   -1394.2287     23461.94   0.69109889 
  396000       396000    1677.0922    1897.9461    1398.0697    499.87649    199.49953   -645.45405     23461.94   0.69109889 
  397000       397000    2007.6448     1921.751    1398.2667    523.48428    199.52765    251.02793     23461.94   0.69109889 
  398000       398000    2159.4559    1943.1293    1431.5291    511.60023    204.27407    632.22269     23461.94   0.69109889 
  399000       399000    2388.0439    1949.9004    1435.9076    513.99281    204.89887    1280.4911     23461.94   0.69109889 
  400000       400000    2180.3151    1958.1857    1424.4942    533.69149    203.27022    649.18153     23461.94   0.69109889 
  401000       401000    1545.2331    1926.4554    1402.3361    524.11922    200.10834   -1114.1365     23461.94   0.69109889 
  402000       402000    1973.7499    1962.1334    1433.7243    528.40913    204.58732    33.949597     23461.94   0.69109889 
  403000       403000    1563.5401    1966.5849    1430.9227    535.66215    204.18755   -1177.9137     23461.94   0.69109889 
  404000       404000    1831.7773    1908.3993    1361.0953    547.30407    194.22342   -223.93088     23461.94   0.69109889 
  405000       405000    1716.7318    1958.9992    1418.6402    540.35907    202.43487   -708.03566     23461.94   0.69109889 
  406000       406000    1892.2721    2009.0704    1452.5869    556.48354    207.27894   -341.34758     23461.94   0.69109889 
  407000       407000    1834.3321    1949.6927    1424.9957    524.69703    203.34178    -337.1458     23461.94   0.69109889 
  408000       408000    2082.8241    1978.1239    1401.8948    576.22912    200.04536    305.99027     23461.94   0.69109889 
  409000       409000    1172.0671    1866.1338    1360.2973    505.83649    194.10955   -2028.4363     23461.94   0.69109889 
  410000       410000    1138.4815    1966.6778    1417.5544     549.1234    202.27994   -2420.4352     23461.94   0.69109889 
  411000       411000    2058.8891    1908.5481    1362.1018    546.44629    194.36705    439.37736     23461.94   0.69109889 
  412000       412000    2141.7758    1995.3462    1429.2551    566.09114    203.94958    427.94593     23461.94   0.69109889 
  413000       413000    1942.1195    1947.6883    1427.0906    520.59772    203.64072   -16.275112     23461.94   0.69109889 
  414000       414000    1406.1976    1912.8783    1376.4874    536.39086    196.41983   -1480.7936     23461.94   0.69109889 
  415000       415000    2049.3541    1969.3786    1416.7491    552.62954    202.16502     233.7315     23461.94   0.69109889 
  416000       416000    2079.3921    1943.7327    1402.1613    541.57149    200.08339     396.4697     23461.94   0.69109889 
  417000       417000    1546.1063    1930.0486     1387.319    542.72954    197.96545   -1122.0859     23461.94   0.69109889 
  418000       418000    1864.8769    1966.1881    1422.7508    543.43731    203.02145   -296.08603     23461.94   0.69109889 
  419000       419000    1554.8728    1962.1293    1424.2492    537.88015    203.23525   -1190.2227     23461.94   0.69109889 
  420000       420000    1793.2073    1974.7984    1426.2324    548.56598    203.51825   -530.70675     23461.94   0.69109889 
  421000       421000    2049.7387    1953.9307     1390.004    563.92671    198.34859    280.00237     23461.94   0.69109889 
  422000       422000    2355.7074    2004.7147    1439.6164    565.09838     205.4281    1025.7893     23461.94   0.69109889 
  423000       423000    2126.2186    1962.2879     1400.104    562.18393    199.78982    479.09359     23461.94   0.69109889 
  424000       424000    1829.3821    1931.1693    1386.2574    544.91187    197.81397   -297.47685     23461.94   0.69109889 
  425000       425000    2331.2593    1934.1214    1383.7132    550.40817    197.45092    1160.6506     23461.94   0.69109889 
  426000       426000    2266.8968    1977.7308    1430.8397    546.89102    204.17571    845.09875     23461.94   0.69109889 
  427000       427000    2358.4232    1959.0866    1401.6356    557.45096    200.00838    1167.0765     23461.94   0.69109889 
  428000       428000    1600.1302    1891.7566    1385.2546    506.50204    197.67087   -852.28923     23461.94   0.69109889 
  429000       429000    1912.0952    1964.2145    1379.5895    584.62501    196.86248   -152.32088     23461.94   0.69109889 
  430000       430000    1735.4219      1953.25    1428.3769    524.87316    203.82426   -636.61108     23461.94   0.69109889 
  431000       431000    1651.0482     1975.432    1419.0786    556.35341    202.49743   -948.02416     23461.94   0.69109889 
  432000       432000    2110.6847    1918.2926    1391.0984    527.19419    198.50475    562.27338     23461.94   0.69109889 
  433000       433000    2004.1133    1901.3215    1371.0312    530.29025    195.64124      300.413     23461.94   0.69109889 
  434000       434000    1684.0643    1982.6048    1412.5731     570.0317    201.56913   -872.49614     23461.94   0.69109889 
  435000       435000    1249.3441    2002.6413    1425.6893    576.95202    203.44076   -2201.5398     23461.94   0.69109889 
  436000       436000    1453.0135    1924.8677    1395.9747    528.89298    199.20059   -1379.0119     23461.94   0.69109889 
  437000       437000    1899.9777    1912.5438    1382.1222    530.42164    197.22389   -36.724992     23461.94   0.69109889 
  438000       438000    2407.2093    2000.0825    1399.6972    600.38527    199.73178    1189.8437     23461.94   0.69109889 
  439000       439000    1507.7542    1939.8894    1414.8257    525.06375    201.89055   -1262.9315     23461.94   0.69109889 
  440000       440000    1999.9783    1978.0491    1442.0164    536.03275    205.77057     64.08872     23461.94   0.69109889 
  441000       441000    1165.0773    1956.1701    1394.2882    561.88191    198.95993   -2311.9988     23461.94   0.69109889 
  442000       442000    1918.8538    1950.1744      1404.11    546.06445    200.36146   -91.535607     23461.94   0.69109889 
  443000       443000    2136.3904    1958.2921     1398.211    560.08116     199.5197    520.49881     23461.94   0.69109889 
  444000       444000    1835.2729    1936.6377    1397.6885    538.94916    199.44515   -296.24239     23461.94   0.69109889 
  445000       445000      2103.73     1976.023    1441.3519    534.67112    205.67575    373.22866     23461.94   0.69109889 
  446000       446000    2196.8517    1974.7866    1410.9096    563.87703    201.33175    648.99366     23461.94   0.69109889 
  447000       447000    2168.2365    1913.7127     1379.028    534.68472    196.78235    743.85556     23461.94   0.69109889 
  448000       448000    2291.7995    1989.6164    1415.6663    573.95017     202.0105    883.14158     23461.94   0.69109889 
  449000       449000    1769.9958    1920.9034    1392.6269    528.27648    198.72287    -441.0331     23461.94   0.69109889 
  450000       450000    1821.8529    1955.1274    1440.5328    514.59459    205.55887   -389.49993     23461.94   0.69109889 
  451000       451000    1936.9702    1950.3787    1424.1516    526.22709    203.22133   -39.186759     23461.94   0.69109889 
  452000       452000    2310.1931    1886.8649    1397.4731    489.39175    199.41441    1237.1928     23461.94   0.69109889 
  453000       453000    1973.7814    1902.8216     1411.178    491.64358    201.37004    207.38267     23461.94   0.69109889 
  454000       454000    2810.8886    1975.9829     1402.015    573.96789    200.06252    2440.0438     23461.94   0.69109889 
  455000       455000    1697.6622    1943.7945    1427.7232    516.07123    203.73099   -719.33079     23461.94   0.69109889 
  456000       456000    1837.1059    1934.5929    1431.1446     503.4483    204.21921   -284.90952     23461.94   0.69109889 
  457000       457000    1374.5295    1914.4128    1393.7319    520.68092    198.88055   -1577.8295     23461.94   0.69109889 
  458000       458000    1799.7479    1958.5727    1423.2775    535.29518     203.0966   -464.17147     23461.94   0.69109889 
  459000       459000    2343.7556    1897.6019    1398.3975    499.20441    199.54632    1303.9011     23461.94   0.69109889 
  460000       460000    2178.8552    1954.3509    1424.9165    529.43444    203.33048    656.12222     23461.94   0.69109889 
  461000       461000    2010.0381    1967.6152    1428.5833    539.03192    203.85372    123.98247     23461.94   0.69109889 
  462000       462000    1560.4343    1936.0684    1384.3807    551.68776    197.54616   -1097.8051     23461.94   0.69109889 
  463000       463000     1703.862    1934.3059     1410.829    523.47686    201.32025     -673.481     23461.94   0.69109889 
  464000       464000    1785.5212    1937.6098    1397.8812    539.72858    199.47264   -444.48462     23461.94   0.69109889 
  465000       465000    1692.2604    1896.1988    1369.2276    526.97123    195.38387   -596.01795     23461.94   0.69109889 
  466000       466000    1854.7796    1916.9106    1371.2988    545.61179    195.67942   -181.58005     23461.94   0.69109889 
  467000       467000    2029.1114    1931.5806    1383.5873    547.99331    197.43295     285.0374     23461.94   0.69109889 
  468000       468000    1786.7254    1910.3632    1387.7379    522.62534    198.02523   -361.33626     23461.94   0.69109889 
  469000       469000    1903.0025    1969.2741    1367.0111    602.26298    195.06759   -193.68139     23461.94   0.69109889 
  470000       470000    1819.5679    1952.2361    1402.6931    549.54307    200.15928   -387.72799     23461.94   0.69109889 
  471000       471000    1969.1857    1898.1298    1390.9711    507.15867    198.48659    207.66372     23461.94   0.69109889 
  472000       472000    2100.6548     1973.195    1408.6178    564.57721    201.00471    372.50618     23461.94   0.69109889 
  473000       473000    2293.9292    1929.0591    1406.5688     522.4903    200.71233    1066.3468     23461.94   0.69109889 
  474000       474000    1932.9244    1916.3537    1391.2412    525.11253    198.52513    48.428501     23461.94   0.69109889 
  475000       475000    2391.0754    1999.6373    1457.4091    542.22819    207.96705     1143.993     23461.94   0.69109889 
  476000       476000    1659.7061    1920.7188    1393.4608    527.25803    198.84186   -762.81966     23461.94   0.69109889 
  477000       477000    1908.2431    2013.7443    1454.9583    558.78599    207.61734   -308.33126     23461.94   0.69109889 
  478000       478000    2242.9331    1942.6834    1416.0638     526.6196    202.06723    877.49113     23461.94   0.69109889 
  479000       479000    1996.1356    1916.1877    1403.4912     512.6965    200.27317    233.65072     23461.94   0.69109889 
  480000       480000     2011.573    1881.1398     1379.721    501.41885    196.88124    381.19602     23461.94   0.69109889 
  481000       481000    1923.5435     1947.466     1414.105    533.36097    201.78772   -69.914366     23461.94   0.69109889 
  482000       482000    2200.2001    1926.3371    1368.3579    557.97913    195.25977    800.37525     23461.94   0.69109889 
  483000       483000    1774.0642     1880.903    1392.2889    488.61406    198.67464   -312.24041     23461.94   0.69109889 
  484000       484000    2127.5141    1962.5775    1422.3448    540.23272     202.9635    482.03338     23461.94   0.69109889 
  485000       485000    1490.9866    1938.7823    1380.5275    558.25476    196.99633   -1308.7001     23461.94   0.69109889 
  486000       486000    1458.6141    2006.1075    1425.8895    580.21794    203.46933   -1600.0704     23461.94   0.69109889 
  487000       487000    1615.0795    1940.0379    1409.0199      531.018    201.06209    -949.7033     23461.94   0.69109889 
  488000       488000    2078.7765    1916.0434    1411.6878    504.35559    201.44279     475.5938     23461.94   0.69109889 
  489000       489000    2035.2502    1977.1048    1431.0122    546.09261    204.20031     169.9322     23461.94   0.69109889 
  490000       490000    1789.7096    1936.9874    1428.8481    508.13931     203.8915   -430.42487     23461.94   0.69109889 
  491000       491000      1940.12    1986.0848    1398.0057    588.07909     199.4904   -134.33378     23461.94   0.69109889 
  492000       492000    1826.9283    1933.2855    1417.4779    515.80767    202.26901   -310.83313     23461.94   0.69109889 
  493000       493000    1626.6931    1918.3389    1392.1815    526.15734    198.65931   -852.34598     23461.94   0.69109889 
  494000       494000    2138.9346     1968.566    1415.9609    552.60509    202.05255    497.90864     23461.94   0.69109889 
  495000       495000    1657.5381    1927.3492    1369.6026    557.74662    195.43738   -788.53334     23461.94   0.69109889 
  496000       496000    2303.2209    1941.6437    1399.6081     542.0356    199.71906    1056.7233     23461.94   0.69109889 
  497000       497000    2133.7411    1978.6471    1436.1787    542.46844    204.93755    453.26809     23461.94   0.69109889 
  498000       498000    2351.7754    1976.0934    1408.5176    567.57578    200.99042    1097.9451     23461.94   0.69109889 
  499000       499000    1453.0267    1876.6891    1358.7742    517.91495    193.89221   -1238.1697     23461.94   0.69109889 
  500000       500000    1483.2046    1958.6541    1379.5811    579.07294    196.86129   -1389.5194     23461.94   0.69109889 
  501000       501000    2454.0588    1934.1744    1372.9873    561.18715    195.92036    1519.3821     23461.94   0.69109889 
  502000       502000    2318.4114    1963.8635     1422.792    541.07148    203.02732    1036.1797     23461.94   0.69109889 
  503000       503000    2064.0921    1937.3559    1389.5758    547.78008    198.28749    370.39143     23461.94   0.69109889 
  504000       504000    2085.6897    1940.5876    1380.3077    560.27995    196.96496    424.06624     23461.94   0.69109889 
  505000       505000    1458.6414     1940.112    1392.1506    547.96133    198.65491   -1407.1162     23461.94   0.69109889 
  506000       506000    2421.5872    2013.0479    1406.3957    606.65217    200.68763    1193.9715     23461.94   0.69109889 
  507000       507000    1699.2748    1967.7593    1403.5563    564.20299    200.28246   -784.65613     23461.94   0.69109889 
  508000       508000    1777.4841    1935.3467     1394.935    540.41172    199.05222   -461.35938     23461.94   0.69109889 
  509000       509000    1992.7216    1952.0424    1393.9926    558.04984    198.91774    118.88661     23461.94   0.69109889 
  510000       510000    1180.3029     1958.789    1422.8257     535.9633    203.03213   -2275.1554     23461.94   0.69109889 
  511000       511000    1629.3211    2019.7214    1423.3852    596.33614    203.11197   -1140.9596     23461.94   0.69109889 
  512000       512000    1921.6022    1930.1463    1392.8147    537.33159    198.74967    -24.97061     23461.94   0.69109889 
  513000       513000      1417.11    1945.0336    1420.8043    524.22925    202.74369    -1542.877     23461.94   0.69109889 
  514000       514000    1655.0242    1945.3869    1385.3353    560.05161    197.68239    -848.5961     23461.94   0.69109889 
  515000       515000    2270.4051    1999.6363    1402.3009    597.33539    200.10332    791.33219     23461.94   0.69109889 
  516000       516000    1799.9052    1952.4684    1404.1489    548.31952    200.36702   -445.87191     23461.94   0.69109889 
  517000       517000    2365.1323     1889.696    1364.9914    524.70463    194.77938    1389.4806     23461.94   0.69109889 
  518000       518000    1998.5914    1935.2566    1402.6002    532.65639    200.14602    185.09847     23461.94   0.69109889 
  519000       519000     2194.968    1954.8232    1408.5944    546.22879    201.00138     701.8322     23461.94   0.69109889 
  520000       520000    1950.1008    1881.5497    1400.0517    481.49809    199.78235    200.34321     23461.94   0.69109889 
  521000       521000    1754.5702    1942.4313    1393.3677    549.06352    198.82858   -549.03111     23461.94   0.69109889 
  522000       522000    2426.8518    1968.7541    1422.0067     546.7474    202.91526     1338.808     23461.94   0.69109889 
  523000       523000    2010.4759    1950.8824    1409.3635    541.51886    201.11113    174.16443     23461.94   0.69109889 
  524000       524000    1674.1097    1942.9875    1381.1166     561.8709    197.08038    -785.8055     23461.94   0.69109889 
  525000       525000    1981.7689    1943.7735    1388.7652    555.00832    198.17182    111.04284     23461.94   0.69109889 
  526000       526000    2338.6171    1967.4762    1448.0926     519.3836    206.63762    1084.6736     23461.94   0.69109889 
  527000       527000    2015.6707     1944.557    1412.0719     532.4851     201.4976    207.83273     23461.94   0.69109889 
  528000       528000    1759.9871    1918.3381    1418.1508     500.1873    202.36503   -462.78677     23461.94   0.69109889 
  529000       529000    1902.7606    1954.7839    1429.1234     525.6605     203.9308   -152.04032     23461.94   0.69109889 
  530000       530000    2299.5633    1999.6055    1408.7617    590.84388    201.02524    876.63801     23461.94   0.69109889 
  531000       531000    1505.7163    1956.2012    1409.4214    546.77977    201.11939   -1316.5593     23461.94   0.69109889 
  532000       532000    1505.8763    1874.5332    1358.4395    516.09377    193.84444   -1077.4139     23461.94   0.69109889 
  533000       533000     1932.575    1951.0609    1385.1973    565.86361    197.66269   -54.025669     23461.94   0.69109889 
  534000       534000    1385.0496    1924.6266    1406.6814    517.94519    200.72839   -1576.9342     23461.94   0.69109889 
  535000       535000    1554.6349    1977.8171    1444.3304    533.48672    206.10078   -1236.7663     23461.94   0.69109889 
  536000       536000    2082.9765    1953.0208    1416.6671    536.35373    202.15332    379.80047     23461.94   0.69109889 
  537000       537000    1775.6627    1939.4267    1409.5187    529.90796    201.13327   -478.60637     23461.94   0.69109889 
  538000       538000    1797.2552    1900.9363    1377.4073    523.52907    196.55108   -303.01216     23461.94   0.69109889 
  539000       539000    1863.3424    1917.2175    1387.7142    529.50329    198.02184   -157.45189     23461.94   0.69109889 
  540000       540000    2219.6858    1931.8516     1406.917    524.93463    200.76201    841.20631     23461.94   0.69109889 
  541000       541000     2115.866    1951.5314    1418.5142    533.01726    202.41689    480.27412     23461.94   0.69109889 
  542000       542000     1648.561    1961.6309    1430.5479    531.08293    204.13406   -914.95863     23461.94   0.69109889 
  543000       543000    2388.8628    1955.2747      1419.53    535.74465    202.56185     1267.178     23461.94   0.69109889 
  544000       544000    1886.2221    1970.0467    1420.3771    549.66953    202.68273   -244.98044     23461.94   0.69109889 
  545000       545000     2430.249    1945.7905    1412.9361    532.85441    201.62092    1415.8484     23461.94   0.69109889 
  546000       546000    1797.6237     1923.807    1384.6684    539.13862    197.58722   -368.77567     23461.94   0.69109889 
  547000       547000    1893.9022    1965.1043    1399.2719    565.83234    199.67109   -208.09068     23461.94   0.69109889 
  548000       548000    2070.4371    1894.0454    1398.3402    495.70526    199.53813    515.51141     23461.94   0.69109889 
  549000       549000    1774.6576    1966.4494    1406.6893    559.76016    200.72952   -560.51888     23461.94   0.69109889 
  550000       550000    1914.1112    1925.7839    1386.7528     539.0311    197.88466   -34.114028     23461.94   0.69109889 
  551000       551000    2419.6346    1939.9937    1399.0237    540.96997    199.63567    1401.7689     23461.94   0.69109889 
  552000       552000     2131.785    1978.5111    1411.1841    567.32703    201.37092    447.94882     23461.94   0.69109889 
  553000       553000    2351.8477    1931.3478    1394.3793     536.9685    198.97293    1228.9269     23461.94   0.69109889 
  554000       554000     1783.006     1946.656      1411.68    534.97598    201.44168   -478.27324     23461.94   0.69109889 
  555000       555000    1366.5346    1933.6696    1382.6785     550.9911    197.30327   -1657.4737     23461.94   0.69109889 
  556000       556000    1516.1785    1880.4715    1388.0127    492.45887    198.06443   -1064.6604     23461.94   0.69109889 
  557000       557000    1455.9553    1959.9066    1375.0115     584.8951    196.20922   -1472.8169     23461.94   0.69109889 
  558000       558000    1606.8473    1922.3339    1375.2428    547.09106    196.24223   -922.02149     23461.94   0.69109889 
  559000       559000    1757.4794    1981.7515    1420.9286    560.82287    202.76142   -655.44367     23461.94   0.69109889 
  560000       560000    2057.3623    1967.8355     1406.409    561.42646    200.68953    261.64544     23461.94   0.69109889 
  561000       561000    2194.1089    1981.5702    1400.0931    581.47704    199.78827    621.15258     23461.94   0.69109889 
  562000       562000    1755.9645    1899.3845    1401.0215    498.36302    199.92074   -419.15032     23461.94   0.69109889 
  563000       563000    2157.6363    1981.4182    1409.7213     571.6969    201.16218      515.004     23461.94   0.69109889 
  564000       564000    1879.3096    1901.0295    1396.5575    504.47196    199.28375   -63.477189     23461.94   0.69109889 
  565000       565000     1744.317    1903.8506    1394.4924    509.35817    198.98907   -466.24295     23461.94   0.69109889 
  566000       566000    1594.9712    1939.1925    1389.4236    549.76888    198.26577   -1005.9997     23461.94   0.69109889 
  567000       567000    2367.3558    1922.8041    1392.2417    530.56241     198.6679    1299.2193     23461.94   0.69109889 
  568000       568000     2655.311    1923.8742    1403.2631    520.61106    200.24062    2137.6519     23461.94   0.69109889 
  569000       569000    2384.0587    1892.1003    1342.6802    549.42005    191.59566    1437.7674     23461.94   0.69109889 
  570000       570000    2075.1099    1939.9418    1421.0313    518.91049    202.77607    395.03398     23461.94   0.69109889 
  571000       571000    1834.3916    2013.8641    1424.4028    589.46124    203.25718   -524.51523     23461.94   0.69109889 
  572000       572000    1644.7943    1960.2022     1367.773    592.42929     195.1763   -921.79162     23461.94   0.69109889 
  573000       573000    2023.7701     1958.428    1442.1388    516.28916    205.78805    190.96466     23461.94   0.69109889 
  574000       574000    2247.4093    1949.1567    1377.1901    571.96656    196.52009    871.65481     23461.94   0.69109889 
  575000       575000    2218.5025    1996.6668    1412.8167    583.85005    201.60388     648.3235     23461.94   0.69109889 
  576000       576000    1179.9039    1901.1344     1377.539    523.59542    196.56988   -2107.8238     23461.94   0.69109889 
  577000       577000    1864.0227    1940.6707     1391.969    548.70177    198.62899   -224.00671     23461.94   0.69109889 
  578000       578000    2227.4483     1984.067    1419.4248    564.64218    202.54683    711.29123     23461.94   0.69109889 
  579000       579000    1607.9313    1930.3401    1417.4259    512.91418     202.2616   -942.25197     23461.94   0.69109889 
  580000       580000    2020.1281    1986.2557    1418.7629    567.49282    202.45238    98.993405     23461.94   0.69109889 
  581000       581000    1758.0215    1928.2448    1399.1706     529.0742    199.65663   -497.48418     23461.94   0.69109889 
  582000       582000    2132.2123     1952.404    1355.1016    597.30242    193.36814    525.49664     23461.94   0.69109889 
  583000       583000    1932.2453    1929.9299    1379.9519    549.97808    196.91419    6.7666698     23461.94   0.69109889 
  584000       584000    1990.7314    1990.4983    1425.1447    565.35358    203.36304    0.6812152     23461.94   0.69109889 
  585000       585000    1450.6203    1899.1971    1362.5993    536.59771    194.43804   -1310.9827     23461.94   0.69109889 
  586000       586000    2350.6443    1940.8756    1390.4512     550.4245     198.4124    1197.5645     23461.94   0.69109889 
  587000       587000     1822.733    1984.0749    1435.8176    548.25737    204.88602   -471.52786     23461.94   0.69109889 
  588000       588000    1947.1935    1910.6102    1377.6191     532.9911    196.58132    106.91606     23461.94   0.69109889 
  589000       589000    1768.3506    1904.9885    1353.2764    551.71211    193.10769   -399.32955     23461.94   0.69109889 
  590000       590000    2161.6983    1961.3585    1400.7654    560.59305     199.8842    585.50088     23461.94   0.69109889 
  591000       591000    1619.4871    1900.7908    1396.3417     504.4491    199.25296   -822.12089     23461.94   0.69109889 
  592000       592000    1796.7136    1977.9257    1428.8726    549.05312      203.895   -529.59914     23461.94   0.69109889 
  593000       593000    1679.7761    1945.3895    1392.1799    553.20969    198.65908   -776.26548     23461.94   0.69109889 
  594000       594000     2148.942    1949.2465    1394.1701    555.07644    198.94308    583.61763     23461.94   0.69109889 
  595000       595000    1541.6192     1925.444    1396.6686    528.77543     199.2996   -1121.7426     23461.94   0.69109889 
  596000       596000    1928.0969    1970.3566    1399.6211     570.7355    199.72092    -123.5057     23461.94   0.69109889 
  597000       597000    1977.5487    1917.5449    1392.4939    525.05103    198.70389    175.36337     23461.94   0.69109889 
  598000       598000    2404.5724    1934.7324    1373.3125    561.41986    195.96678    1373.1254     23461.94   0.69109889 
  599000       599000    2236.5094    1956.1447    1396.3707    559.77398     199.2571    819.37659     23461.94   0.69109889 
  600000       600000    2238.9788    1979.8517    1411.4396    568.41201    201.40738    757.30908     23461.94   0.69109889 
  601000       601000    1460.1613    1929.0858    1376.4892    552.59667    196.42007   -1370.4499     23461.94   0.69109889 
  602000       602000    2528.0428    1987.4438    1408.8728    578.57102    201.04109    1579.9213     23461.94   0.69109889 
  603000       603000     2077.843    1951.9069    1409.3945    542.51243    201.11554     368.0529     23461.94   0.69109889 
  604000       604000    1834.4456    1885.8343    1365.0358    520.79849    194.78573   -150.18554     23461.94   0.69109889 
  605000       605000    1978.4909    1993.8115    1391.4715    602.34003    198.55799   -44.774859     23461.94   0.69109889 
  606000       606000    2596.3598    1915.1841     1383.429    531.75516    197.41036    1990.7618     23461.94   0.69109889 
[...]
  854000       854000    1475.5171    1941.4274     1410.141    531.28639    201.22206   -1361.6405     23461.94   0.69109889 
  855000       855000    1932.2361    1911.5085    1395.0481    516.46036    199.06837    60.577178     23461.94   0.69109889 
  856000       856000    2194.4432    1905.9542    1385.2325    520.72169    197.66772    843.12013     23461.94   0.69109889 
  857000       857000    1880.3396    1917.4727    1376.4335    541.03917    196.41213    -108.5229     23461.94   0.69109889 
  858000       858000    1879.4638    1921.1031    1402.1394    518.96364    200.08028   -121.69251     23461.94   0.69109889 
  859000       859000    2015.5707    1950.8995    1389.0656    561.83397    198.21468    189.00391     23461.94   0.69109889 
  860000       860000    2522.2921    1919.2107    1376.6079     542.6028    196.43701    1762.5286     23461.94   0.69109889 
  861000       861000    1968.4193    1949.8125    1434.6459    515.16663    204.71883     54.37891     23461.94   0.69109889 
  862000       862000    2005.3496    1939.9351    1399.5198    540.41527    199.70647    191.17625     23461.94   0.69109889 
  863000       863000    1977.5336    1930.0838    1373.0805    557.00332    195.93367    138.67385     23461.94   0.69109889 
  864000       864000    1822.7949    2011.2404    1436.0223    575.21809    204.91523   -550.73904     23461.94   0.69109889 
  865000       865000     1592.974    1970.6123    1413.1284    557.48388    201.64836   -1103.6622     23461.94   0.69109889 
  866000       866000    1691.4158    1896.2789    1401.7199    494.55896    200.02041   -598.72024     23461.94   0.69109889 
  867000       867000    1594.5656    1939.5211    1413.2985    526.22255    201.67263   -1008.1456     23461.94   0.69109889 
  868000       868000    2201.4922    1951.2811    1408.8594    542.42168    201.03919    731.25144     23461.94   0.69109889 
  869000       869000    2083.4759     2036.465    1410.4579    626.00704    201.26729    137.39131     23461.94   0.69109889 
  870000       870000    2039.4036    1953.9024    1403.9441    549.95828     200.3378    249.88043     23461.94   0.69109889 
  871000       871000    2601.6957     1962.565    1402.5604    560.00459    200.14035    1867.8839     23461.94   0.69109889 
  872000       872000    2356.8907    1941.6077     1390.263    551.34472    198.38555    1213.6803     23461.94   0.69109889 
  873000       873000     1778.806     1949.628    1400.2904    549.33757    199.81642   -499.23364     23461.94   0.69109889 
  874000       874000    2130.5319    2003.4528    1426.9225    576.53026    203.61674    371.39358     23461.94   0.69109889 
  875000       875000     2001.869     1917.986    1399.5969    518.38914    199.71746    245.15132     23461.94   0.69109889 
  876000       876000    1982.3034    1897.5763    1392.6658    504.91053    198.72842    247.61821     23461.94   0.69109889 
  877000       877000    2436.0153    1950.0817    1407.8645    542.21718    200.89722    1420.1595     23461.94   0.69109889 
  878000       878000     2273.869    1934.8036    1399.8671    534.93657    199.75602    990.93131     23461.94   0.69109889 
  879000       879000    1624.1023    1904.7127    1375.7119    529.00087    196.30916   -820.09483     23461.94   0.69109889 
  880000       880000     2052.733    1994.7509    1409.7383    585.01263     201.1646    169.45486     23461.94   0.69109889 
  881000       881000    1788.2577    1957.0017    1417.4414    539.56029    202.26381   -493.16091     23461.94   0.69109889 
  882000       882000    1138.4614      1909.46    1373.5668     535.8932    196.00307   -2253.2728     23461.94   0.69109889 
  883000       883000    1746.0138    1943.9199     1401.963    541.95686     200.0551   -578.38807     23461.94   0.69109889 
  884000       884000    1892.2101    1997.3144    1426.8251     570.4893    203.60283   -307.17129     23461.94   0.69109889 
  885000       885000     1610.617    1900.6549    1357.5866    543.06832    193.72274   -847.64699     23461.94   0.69109889 
  886000       886000    1601.3584    1970.1191    1418.6283    551.49086    202.43317   -1077.7174     23461.94   0.69109889 
  887000       887000    1986.5752    1907.9751    1397.3912    510.58384    199.40272    229.71177     23461.94   0.69109889 
  888000       888000    1384.9108    1933.4738    1386.8766    546.59726    197.90232   -1603.1964     23461.94   0.69109889 
  889000       889000      2163.26    1964.3954    1414.5686    549.82676    201.85387    581.18951     23461.94   0.69109889 
  890000       890000    1890.3155     1993.991    1446.8873    547.10365    206.46564   -302.99554     23461.94   0.69109889 
  891000       891000    1709.0314    1992.6102    1419.3679    573.24221    202.53872   -828.76981     23461.94   0.69109889 
  892000       892000    2001.9561    1908.7965    1390.7453    518.05119    198.45438    272.26244     23461.94   0.69109889 
  893000       893000    2326.9649    1961.1052    1435.1924    525.91283    204.79681    1069.2388     23461.94   0.69109889 
  894000       894000    1717.7994    1940.6858    1384.8454    555.84037    197.61248   -651.39402     23461.94   0.69109889 
  895000       895000     1790.992    1936.9822    1386.2697    550.71256    197.81572   -426.66217     23461.94   0.69109889 
  896000       896000    1930.7981    1978.9356    1393.6069    585.32868    198.86271   -140.68359     23461.94   0.69109889 
  897000       897000    1617.9224    1917.9575    1390.9862     526.9713    198.48874   -876.86382     23461.94   0.69109889 
  898000       898000    1479.9576    1923.2702    1379.4932    543.77691    196.84874    -1295.598     23461.94   0.69109889 
  899000       899000    2248.7852     1981.279    1404.6615     576.6175    200.44017     781.7969     23461.94   0.69109889 
  900000       900000     2363.182    1971.4743    1416.4709    555.00348    202.12532    1144.7804     23461.94   0.69109889 
  901000       901000    2041.1408    1909.8094    1388.1415    521.66787    198.08282    383.82098     23461.94   0.69109889 
  902000       902000    1966.0332    1920.0768    1401.6497    518.42717    200.01038    134.30928     23461.94   0.69109889 
  903000       903000     2499.727    1977.4744    1432.5367    544.93774    204.41785    1526.3029     23461.94   0.69109889 
  904000       904000    2177.0163    1909.3237    1382.3305    526.99323    197.25361    782.34192     23461.94   0.69109889 
  905000       905000    1428.0169    1981.1596    1434.5295    546.63018    204.70221   -1616.5808     23461.94   0.69109889 
  906000       906000    2069.6741    1945.4173    1380.9469    564.47034    197.05618    363.14522     23461.94   0.69109889 
  907000       907000    1818.2616    1885.9781    1362.4806    523.49757     194.4211   -197.90404     23461.94   0.69109889 
  908000       908000    1587.9497    1931.5233    1395.7381    535.78525    199.16682   -1004.1069     23461.94   0.69109889 
  909000       909000    2219.5265    1979.0348    1423.5845    555.45035     203.1404    702.84621     23461.94   0.69109889 
  910000       910000    1855.6012     1972.458    1425.6491    546.80886    203.43502   -341.51848     23461.94   0.69109889 
  911000       911000     1504.628    1945.2105    1403.9301    541.28047    200.33579   -1287.6192     23461.94   0.69109889 
  912000       912000    1252.7133     1941.318    1399.4586    541.85946    199.69772   -2012.4736     23461.94   0.69109889 
  913000       913000    1504.2383    1950.3613    1400.0841    550.27715    199.78699   -1303.8114     23461.94   0.69109889 
  914000       914000    1972.1651     1977.571    1418.4063    559.16474     202.4015   -15.799097     23461.94   0.69109889 
  915000       915000    1831.6234     1951.123    1399.9577    551.16534    199.76895   -349.24235     23461.94   0.69109889 
  916000       916000    1569.9174    1891.9895    1371.7427    520.24681    195.74277   -941.26785     23461.94   0.69109889 
  917000       917000    1740.1396    1954.0148    1402.8227    551.19219    200.17777   -625.05854     23461.94   0.69109889 
  918000       918000    1391.1268    1936.5246    1397.1124    539.41219    199.36294   -1593.9459     23461.94   0.69109889 
  919000       919000    2042.5318    1867.5275    1368.7629    498.76468    195.31755    511.45669     23461.94   0.69109889 
  920000       920000    2294.3953    1933.9613    1386.0323    547.92896    197.78185    1053.3821     23461.94   0.69109889 
  921000       921000    1665.6899    2029.5488    1460.5935    568.95528    208.42146   -1063.3914     23461.94   0.69109889 
  922000       922000    1950.6372    1929.5587     1385.795    543.76375    197.74798    61.602734     23461.94   0.69109889 
  923000       923000    1528.3103    1877.3281    1373.3319    503.99616    195.96954   -1020.0176     23461.94   0.69109889 
  924000       924000    2143.4321     1955.329    1408.6814    546.64765    201.01378    549.73841     23461.94   0.69109889 
  925000       925000    1671.4838    1958.5748    1410.4363    548.13856     201.2642    -839.0344     23461.94   0.69109889 
  926000       926000    2092.1585     1971.396     1384.738      586.658    197.59715    352.93299     23461.94   0.69109889 
  927000       927000    2214.1998    2016.1552    1433.0312    583.12399    204.48842    578.79296     23461.94   0.69109889 
  928000       928000    1497.2501     1909.423    1377.7419    531.68114    196.59883   -1204.5911     23461.94   0.69109889 
  929000       929000     1812.943    1934.8388    1386.7959     548.0429    197.89081    -356.2452     23461.94   0.69109889 
  930000       930000    1929.2394    1968.3435    1427.5362    540.80729     203.7043    -114.2832     23461.94   0.69109889 
  931000       931000    1971.1185    1961.9475    1406.2425    555.70501    200.66577    26.802478     23461.94   0.69109889 
  932000       932000    1941.0226    1977.5534    1400.6797     576.8737    199.87198   -106.76274     23461.94   0.69109889 
  933000       933000    1863.4876    1909.0234    1406.8053    502.21806    200.74608   -133.07995     23461.94   0.69109889 
  934000       934000    2015.5512    1926.4471    1392.3107    534.13641    198.67775    260.41006     23461.94   0.69109889 
  935000       935000    1872.3558    1987.5315    1437.2824    550.24914    205.09505   -336.60556     23461.94   0.69109889 
  936000       936000    1170.0175    1976.1389    1421.7364    554.40245     202.8767   -2355.9205     23461.94   0.69109889 
  937000       937000    1816.5058    1930.8911    1390.6337    540.25739    198.43845   -334.29542     23461.94   0.69109889 
  938000       938000    2032.1835    1962.1341    1365.7647    596.36944    194.88973     204.7221     23461.94   0.69109889 
  939000       939000    1705.4835    1957.7776    1446.7952    510.98244    206.45249   -737.33918     23461.94   0.69109889 
  940000       940000     2204.657    1993.6968    1426.7165    566.98028    203.58734     616.5393     23461.94   0.69109889 
  941000       941000    1785.8917    1920.1251    1393.7534    526.37171    198.88362    -392.3023     23461.94   0.69109889 
  942000       942000    2191.5212    2007.9619    1437.5997    570.36222    205.14033    536.45892     23461.94   0.69109889 
  943000       943000    1810.3038    1950.2299    1428.2316     521.9983    203.80353   -408.93914     23461.94   0.69109889 
  944000       944000    1860.8497    1971.2958    1416.4503    554.84555    202.12238   -322.78305     23461.94   0.69109889 
  945000       945000    2170.8929    1930.8977    1380.1376    550.76001     196.9407    701.39533     23461.94   0.69109889 
  946000       946000    2019.0589     1921.758    1378.7629    542.99508    196.74453    284.36567     23461.94   0.69109889 
  947000       947000    2185.3733    1967.5697    1415.7216    551.84809     202.0184    636.53927     23461.94   0.69109889 
  948000       948000    1593.1022    1913.8696    1390.1933    523.67632    198.37561   -937.45499     23461.94   0.69109889 
  949000       949000    1452.6771    1963.5031    1407.5807     555.9224    200.85672   -1492.9083     23461.94   0.69109889 
  950000       950000    1827.4546    1918.5622    1370.7307    547.83157    195.59835   -266.26562     23461.94   0.69109889 
  951000       951000    1898.9831    1951.4782    1386.9591    564.51909    197.91409   -153.41898     23461.94   0.69109889 
  952000       952000    1803.7071    1884.2882    1389.3144    494.97384    198.25019   -235.50153     23461.94   0.69109889 
  953000       953000    2460.9731    1961.6035    1398.9163     562.6872    199.62034    1459.4267     23461.94   0.69109889 
  954000       954000    1770.5467     1978.216      1389.34    588.87603    198.25384   -606.92141     23461.94   0.69109889 
  955000       955000    2146.8109    1905.0044    1394.7352    510.26924    199.02371    706.68879     23461.94   0.69109889 
  956000       956000     1592.843    1940.8015    1369.8373     570.9642    195.47087    -1016.922     23461.94   0.69109889 
  957000       957000    1536.2478     2026.322    1439.4801    586.84189    205.40865   -1432.2604     23461.94   0.69109889 
  958000       958000    2366.9232    1970.0738    1420.4918    549.58194     202.6991    1159.8075     23461.94   0.69109889 
  959000       959000    2240.4811    1893.3293     1397.907    495.42229    199.47632    1014.5644     23461.94   0.69109889 
  960000       960000    1260.7803    1933.0172    1391.3672    541.64999    198.54311   -1964.6379     23461.94   0.69109889 
  961000       961000    1480.4523    1895.2333     1343.059    552.17422    191.64971   -1212.2132     23461.94   0.69109889 
  962000       962000    1951.4814    1963.8919    1425.4337    538.45819    203.40429   -36.270239     23461.94   0.69109889 
  963000       963000    1245.8644    1922.1195     1359.939    562.18053    194.05842   -1976.3815     23461.94   0.69109889 
  964000       964000     1498.358    1888.7463    1374.2749    514.47142     196.1041   -1140.9246     23461.94   0.69109889 
  965000       965000    1456.5508    1933.5104    1390.5233     542.9871    198.42269   -1393.9326     23461.94   0.69109889 
  966000       966000     1831.493    1986.0108    1425.0002    561.01066    203.34242   -451.58413     23461.94   0.69109889 
  967000       967000    1717.6745    1962.3564    1405.3106     557.0459    200.53278   -715.09218     23461.94   0.69109889 
  968000       968000    1897.6106    1967.3764    1404.8272    562.54925     200.4638   -203.89318     23461.94   0.69109889 
  969000       969000    1272.5769    1954.5129    1402.1213    552.39159    200.07769   -1992.9841     23461.94   0.69109889 
  970000       970000    1620.9266    1954.9354     1428.265    526.67049    203.80829   -976.15351     23461.94   0.69109889 
  971000       971000    1824.8917    2012.4699    1425.7483    586.72153    203.44918   -548.20436     23461.94   0.69109889 
  972000       972000    2302.3391    1917.7493    1382.7746    534.97472    197.31698    1123.9783     23461.94   0.69109889 
  973000       973000    1919.6682    1935.2967    1404.9555    530.34112    200.48212   -45.674748     23461.94   0.69109889 
  974000       974000    2107.6195      1962.16    1419.8162    542.34382    202.60268     425.1109     23461.94   0.69109889 
  975000       975000    1752.4815    1902.1637    1375.2178    526.94594    196.23865   -437.45182     23461.94   0.69109889 
  976000       976000    2048.6454    1966.5414    1406.7321    559.80931    200.73563    239.95196     23461.94   0.69109889 
  977000       977000    2441.7895    1963.4327    1411.1763     552.2564     201.3698    1398.0159     23461.94   0.69109889 
  978000       978000     1927.184    1940.1626    1392.1194    548.04326    198.65044   -37.930422     23461.94   0.69109889 
  979000       979000    1916.0637    1938.8967    1424.5593    514.33736    203.27951   -66.730313     23461.94   0.69109889 
  980000       980000    1551.5374    1930.1504    1398.4182    531.73216    199.54927   -1106.5109     23461.94   0.69109889 
  981000       981000    1966.2928     1860.392    1370.0956    490.29637    195.50774    309.49916     23461.94   0.69109889 
  982000       982000    2043.6566    1981.0038    1424.7566    556.24717    203.30767    183.10534     23461.94   0.69109889 
  983000       983000    1593.1217    1934.9172    1404.7837    530.13349     200.4576   -998.91025     23461.94   0.69109889 
  984000       984000    2204.6409    2016.5131    1439.4512    577.06191    205.40453    549.81064     23461.94   0.69109889 
  985000       985000    1958.9213    1985.4017    1435.8838    549.51792    204.89548   -77.390154     23461.94   0.69109889 
  986000       986000    1930.8958    1925.1493    1397.7164    527.43288    199.44913    16.794292     23461.94   0.69109889 
  987000       987000    2233.5026    1916.1491    1382.5352    533.61387    197.28283    927.47764     23461.94   0.69109889 
  988000       988000    2071.3104    1947.4059    1421.5978    525.80804    202.85692    362.11557     23461.94   0.69109889 
  989000       989000     2244.794    1981.4747    1416.0504    565.42433    202.06531    769.56062     23461.94   0.69109889 
  990000       990000    1783.3139    1951.9535     1397.315    554.63843    199.39185    -492.8557     23461.94   0.69109889 
  991000       991000    1634.8176    1924.0055    1367.0361    556.96939    195.07115   -845.16259     23461.94   0.69109889 
  992000       992000    2079.8791    1904.8327    1382.9446    521.88807    197.34124    511.57977     23461.94   0.69109889 
  993000       993000    2102.2452    1961.3387    1435.3095    526.02916    204.81352    411.80471     23461.94   0.69109889 
  994000       994000    2215.8464    1859.5423    1384.5239    475.01844     197.5666    1041.3122     23461.94   0.69109889 
  995000       995000    2460.2322    1970.5832    1415.7508    554.83237    202.02257    1431.0179     23461.94   0.69109889 
  996000       996000    1549.6499    1941.0003    1393.4777    547.52264    198.84428   -1143.7367     23461.94   0.69109889 
  997000       997000    1478.1139    1983.8338    1409.7619    574.07193    201.16797   -1477.9858     23461.94   0.69109889 
  998000       998000    1562.0516    1905.9979    1368.4546    537.54328    195.27357    -1005.196     23461.94   0.69109889 
  999000       999000    2141.3435    1973.6986    1419.0792    554.61936    202.49752    489.94875     23461.94   0.69109889 
 1000000      1000000    2215.1992     2003.724    1424.0671     579.6569    203.20927    618.04452     23461.94   0.69109889 
Loop time of 1607.76 on 24 procs for 1000000 steps with 2352 atoms

Performance: 53.739 ns/day, 0.447 hours/ns, 621.983 timesteps/s
92.9% CPU use with 24 MPI tasks x 1 OpenMP threads

MPI task timing breakdown:
Section |  min time  |  avg time  |  max time  |%varavg| %total
---------------------------------------------------------------
Pair    | 774.97     | 804.4      | 833.45     |  56.5 | 50.03
Bond    | 37.806     | 38.403     | 39.513     |   7.0 |  2.39
Kspace  | 215.89     | 243.3      | 279.51     | 113.1 | 15.13
Neigh   | 43.483     | 43.971     | 44.613     |   5.2 |  2.73
Comm    | 345.95     | 359.13     | 370.83     |  34.5 | 22.34
Output  | 0.043035   | 1.8909     | 44.382     | 644.3 |  0.12
Modify  | 12.589     | 14.845     | 18.078     |  43.8 |  0.92
Other   |            | 101.8      |            |       |  6.33

Nlocal:    98 ave 111 max 86 min
Histogram: 2 0 5 2 4 3 3 2 0 3
Nghost:    5519.25 ave 5601 max 5442 min
Histogram: 3 1 2 4 3 3 4 0 1 3
Neighs:    56383.4 ave 65711 max 47825 min
Histogram: 1 0 5 5 2 4 2 3 0 2

Total # of neighbors = 1353202
Ave neighs/atom = 575.341
Ave special neighs/atom = 9.14286
Neighbor list builds = 26249
Dangerous builds = 0

#write_data butane_afterr_nvt1.data
Total wall time: 0:26:47
