LAMMPS (3 Mar 2020)
  using 1 OpenMP thread(s) per MPI task
units           real
atom_style      full
boundary        p p p


pair_style      lj/cut/coul/long 12.0
pair_modify     tail yes mix geometric
bond_style      harmonic
angle_style     harmonic
dihedral_style  opls

kspace_style    ewald 1.0e-5
#special_bonds   lj/coul 0.0 0.0 0.5

neighbor        2.0 bin
neigh_modify    every 1 delay 0 check yes

read_data       butane_after_npt.data
  orthogonal box = (2.6894 2.6894 2.6894) to (32.3106 32.3106 32.3106)
  3 by 2 by 4 MPI processor grid
  reading atoms ...
  2352 atoms
  reading velocities ...
  2352 velocities
  scanning bonds ...
  1 = max bonds/atom
  scanning angles ...
  6 = max angles/atom
  scanning dihedrals ...
  11 = max dihedrals/atom
  reading bonds ...
  2184 bonds
  reading angles ...
  4032 angles
  reading dihedrals ...
  4536 dihedrals
  4 = max # of 1-2 neighbors
  6 = max # of 1-3 neighbors
  9 = max # of 1-4 neighbors
  13 = max # of special neighbors
  special bonds CPU = 0.0015212 secs
  read_data CPU = 0.100585 secs

group           mobile union all
2352 atoms in group mobile

#minimize 1.0e-8 1.0e-10 400000 400000
#write_data buate_after_min.data

fix DEF all deform 1 x final 0.0 29.4768 y final 0.0 29.4768 z final 0.0 29.4768 units box
run 1
Ewald initialization ...
  using 12-bit tables for long-range coulomb (src/kspace.cpp:332)
  G vector (1/distance) = 0.187824
  estimated absolute RMS force accuracy = 0.00464375
  estimated relative force accuracy = 1.39845e-05
  KSpace vectors: actual max1d max3d = 128 4 364
                  kxmax kymax kzmax  = 4 4 4
Neighbor list info ...
  update every 1 steps, delay 0 steps, check yes
  max neighbors/atom: 2000, page size: 100000
  master list distance cutoff = 14
  ghost atom cutoff = 14
  binsize = 7, bins = 5 5 5
  1 neighbor lists, perpetual/occasional/extra = 1 0 0
  (1) pair lj/cut/coul/long, perpetual
      attributes: half, newton on
      pair build: half/bin/newton
      stencil: half/bin/3d/newton
      bin: standard
Per MPI rank memory allocation (min/avg/max) = 19.25 | 19.26 | 19.28 Mbytes
Step Temp E_pair E_mol TotEng Press Volume 
       0    255.81877   -686.23781    1701.8541    2808.3647   -1398.5681    25990.106 
       1    255.81877   -686.63108    1701.8541    2807.9714   -1421.3285    25611.853 
WARNING: Bond/angle/dihedral extent > half of periodic box length (src/domain.cpp:906)
Loop time of 0.00312112 on 24 procs for 1 steps with 2352 atoms

Performance: 27.682 ns/day, 0.867 hours/ns, 320.398 timesteps/s
97.6% CPU use with 24 MPI tasks x 1 OpenMP threads

MPI task timing breakdown:
Section |  min time  |  avg time  |  max time  |%varavg| %total
---------------------------------------------------------------
Pair    | 0.0014822  | 0.0017865  | 0.0021877  |   0.4 | 57.24
Bond    | 5.0003e-05 | 7.5848e-05 | 9.8743e-05 |   0.0 |  2.43
Kspace  | 0.00021305 | 0.00060828 | 0.00090775 |   0.0 | 19.49
Neigh   | 0          | 0          | 0          |   0.0 |  0.00
Comm    | 0.00046672 | 0.00049152 | 0.00050831 |   0.0 | 15.75
Output  | 6.2977e-05 | 7.3783e-05 | 9.0758e-05 |   0.0 |  2.36
Modify  | 7.304e-06  | 7.9361e-06 | 8.786e-06  |   0.0 |  0.25
Other   |            | 7.728e-05  |            |       |  2.48

Nlocal:    98 ave 115 max 83 min
Histogram: 2 4 2 2 2 5 2 2 0 3
Nghost:    5092.46 ave 5242 max 4970 min
Histogram: 3 0 4 4 5 1 2 2 2 1
Neighs:    50884.1 ave 61710 max 42334 min
Histogram: 2 5 2 2 1 6 1 2 2 1

Total # of neighbors = 1221218
Ave neighs/atom = 519.225
Ave special neighs/atom = 9.14286
Neighbor list builds = 0
Dangerous builds = 0
unfix DEF

thermo_style    custom step time enthalpy etotal ke pe temp press vol density
#thermo_modify   line multi
thermo          1000
thermo_modify   flush yes
timestep 1.0


## Equil NPT ##
#fix      NPT  all nvt temp 272 272 100 iso 1 1 1000
#restart 1000000 liqbut1.restart

#fix      NPT  all npt temp 160 160 50 iso 1 1 500
#dump myDump all atom 2000 butane_npt.lammpstrj

#run 5000000
#write_data ethanol_after_npt.data



fix 1 all nvt temp 250 250 100 # iso 1.0 1.0 1000.0
#dump            DUMPxyz all xyz 1 but1_clms_20ps.xyz
#dump            DUMP all custom 1000 mol.lammpstrj id type x y z fx fy fz mol

run 1000000
Ewald initialization ...
  using 12-bit tables for long-range coulomb (src/kspace.cpp:332)
  G vector (1/distance) = 0.18796
  estimated absolute RMS force accuracy = 0.00456194
  estimated relative force accuracy = 1.37382e-05
  KSpace vectors: actual max1d max3d = 128 4 364
                  kxmax kymax kzmax  = 4 4 4
Per MPI rank memory allocation (min/avg/max) = 19.25 | 19.26 | 19.28 Mbytes
Step Time Enthalpy TotEng KinEng PotEng Temp Press Volume Density 
       1            1    5582.2602    2807.2611    1792.7484    1014.5127    255.81877    7429.2668    25611.853   0.63308659 
    1000         1000    3197.9698    2782.6593    1762.3552    1020.3041    251.48177    1111.8751    25611.853   0.63308659 
    2000         2000     2130.939    2702.9559    1730.4854    972.47057    246.93406   -1531.4118    25611.853   0.63308659 
    3000         3000    3119.9817    2711.1188    1724.9647    986.15407    246.14628    1094.6136    25611.853   0.63308659 
    4000         4000    2203.5774    2684.0314    1730.3488    953.68264    246.91457   -1286.2783    25611.853   0.63308659 
    5000         5000    2950.6287    2723.6721     1745.087    978.58506    249.01767    607.61155    25611.853   0.63308659 
    6000         6000    2734.3008     2734.262    1724.9876    1009.2744    246.14955   0.10380268    25611.853   0.63308659 
    7000         7000    2683.4722    2794.4959    1782.9768    1011.5191     254.4244   -297.23426    25611.853   0.63308659 
    8000         8000    2526.2095     2743.073    1756.2527    986.82028    250.61097   -580.59004    25611.853   0.63308659 
    9000         9000    2320.0937    2748.5945    1768.8229    979.77159    252.40469   -1147.1884    25611.853   0.63308659 
   10000        10000    2813.7133    2740.5398    1751.9013    988.63856    249.99004    195.90092    25611.853   0.63308659 
   11000        11000    2719.8822    2746.5388    1763.2007    983.33813    251.60242   -71.365501    25611.853   0.63308659 
   12000        12000    3360.9441    2726.5186    1765.0021    961.51648    251.85947    1698.4931    25611.853   0.63308659 
   13000        13000    3569.5455    2770.8904    1755.2611    1015.6293    250.46947    2138.1708    25611.853   0.63308659 
   14000        14000    2731.5766    2804.5374    1773.3536    1031.1837    253.05121    -195.3317    25611.853   0.63308659 
   15000        15000    2640.3944    2716.7863    1734.8269    981.95943    247.55359   -204.51746    25611.853   0.63308659 
   16000        16000    2690.5042    2749.2996    1747.9729    1001.3267    249.42948   -157.40794    25611.853   0.63308659 
   17000        17000    2915.1679    2730.5597    1742.7016    987.85813    248.67727    494.23574    25611.853   0.63308659 
   18000        18000    2859.0761    2732.9277      1738.01    994.91771     248.0078    337.72645    25611.853   0.63308659 
   19000        19000    2849.1642    2788.6817    1797.4559    991.22581    256.49052    161.92436    25611.853   0.63308659 
   20000        20000    2710.6155    2782.5429    1784.5633    997.97958    254.65079   -192.56503    25611.853   0.63308659 
   21000        21000    3099.6727    2734.9584    1768.6436    966.31484     252.3791    976.41831    25611.853   0.63308659 
   22000        22000     2650.788    2707.5562    1790.1237    917.43244    255.44424    -151.9806    25611.853   0.63308659 
   23000        23000    2861.4873    2758.2218    1744.8315    1013.3903    248.98121    276.46376    25611.853   0.63308659 
   24000        24000    2374.6867    2749.8668    1787.2171    962.64966    255.02948   -1004.4375    25611.853   0.63308659 
   25000        25000    2302.6114    2723.1441    1736.4131    986.73092    247.77993   -1125.8561    25611.853   0.63308659 
   26000        26000    2387.2012    2775.4322    1778.6383    996.79394    253.80531   -1039.3774    25611.853   0.63308659 
   27000        27000    2223.8125    2702.8096    1731.0186    971.79098    247.01015   -1282.3778    25611.853   0.63308659 
   28000        28000    2524.5347     2742.903    1789.9621    952.94087    255.42119   -584.61869    25611.853   0.63308659 
   29000        29000    3219.4564    2795.4827     1780.068    1015.4147    254.00933    1135.0685    25611.853   0.63308659 
   30000        30000     3145.603    2768.7797    1783.8171    984.96268     254.5443    1008.8365    25611.853   0.63308659 
   31000        31000    3143.0173    2714.6159    1769.8117    944.80423    252.54579    1146.9223    25611.853   0.63308659 
   32000        32000    2740.3482    2825.3203    1795.2841    1030.0362    256.18061   -227.48859    25611.853   0.63308659 
   33000        33000    3056.3937    2705.4458    1738.5423     966.9035    248.08376    939.56265    25611.853   0.63308659 
   34000        34000    3336.7586     2726.707     1772.618    954.08899    252.94623    1633.2389    25611.853   0.63308659 
   35000        35000    2815.9368    2692.8217      1767.53    925.29171     252.2202    329.60542    25611.853   0.63308659 
   36000        36000    2557.1244    2722.1787    1720.8554    1001.3233     245.5599   -441.88552    25611.853   0.63308659 
   37000        37000    2653.7478    2798.1428    1781.9065    1016.2363    254.27167   -386.57638    25611.853   0.63308659 
   38000        38000    3217.5859    2769.8255     1792.197    977.62855    255.74009    1198.7503    25611.853   0.63308659 
   39000        39000    2533.6092     2726.497    1729.0178    997.47921    246.72465   -516.40201    25611.853   0.63308659 
   40000        40000    2375.4455    2715.8765    1764.8181    951.05835    251.83322   -911.40659    25611.853   0.63308659 
   41000        41000    2214.2124     2673.026    1725.7475     947.2785    246.25798   -1228.3422    25611.853   0.63308659 
   42000        42000    2554.4014    2709.5003    1755.5719    953.92837    250.51382   -415.23287    25611.853   0.63308659 
   43000        43000    2650.7766    2739.6828    1748.8171    990.86573    249.54993   -238.02088    25611.853   0.63308659 
   44000        44000     3045.547    2785.2479    1759.0582    1026.1897     251.0113    696.87639    25611.853   0.63308659 
   45000        45000    2980.2176    2663.1449    1719.5298    943.61511    245.37074    848.87158    25611.853   0.63308659 
   46000        46000    2807.3264    2715.9339    1756.0274     959.9065    250.57882    244.67711    25611.853   0.63308659 
   47000        47000    3199.4933    2711.5221    1773.8055    937.71659    253.11569    1306.4034    25611.853   0.63308659 
   48000        48000    3253.0999    2791.3906    1771.9298    1019.4608    252.84803    1236.0947    25611.853   0.63308659 
   49000        49000    2817.0836    2765.6789    1773.6253    992.05355    253.08998    137.62164    25611.853   0.63308659 
   50000        50000    3124.7387    2680.9062    1717.8397    963.06653    245.12957    1188.2346    25611.853   0.63308659 
   51000        51000    2834.2512      2738.64    1760.2662     978.3738    251.18368     255.9717    25611.853   0.63308659 
   52000        52000    2575.9743     2710.534    1697.7271    1012.8069    242.25958   -360.24518    25611.853   0.63308659 
   53000        53000     2551.772    2670.3165    1673.7325    996.58395    238.83564   -317.36892    25611.853   0.63308659 
   54000        54000      2580.64    2770.8804    1770.5553    1000.3251    252.65189    -509.3143    25611.853   0.63308659 
   55000        55000    2753.2164    2684.5483    1753.0626     931.4857    250.15575     183.8393    25611.853   0.63308659 
   56000        56000    2707.3985    2734.7744    1725.6927    1009.0818    246.25016    -73.29136    25611.853   0.63308659 
   57000        57000    2341.7129    2736.7251     1717.899    1018.8261    245.13804   -1057.5323    25611.853   0.63308659 
   58000        58000    2911.1389    2711.1099    1763.7214    947.38845    251.67673    535.52051    25611.853   0.63308659 
   59000        59000    3210.1322     2777.403    1789.3386    988.06435    255.33221    1158.5089    25611.853   0.63308659 
   60000        60000    3448.6445    2794.0993    1780.3391    1013.7601    254.04802    1752.3576    25611.853   0.63308659 
   61000        61000    2768.6726    2741.4623    1750.1647    991.29763    249.74223    72.847564    25611.853   0.63308659 
   62000        62000    3393.5552    2771.6221    1768.6674    1002.9547     252.3825    1665.0479    25611.853   0.63308659 
   63000        63000    2654.4139    2811.7176       1802.4    1009.3176    257.19602   -421.13555    25611.853   0.63308659 
   64000        64000    3094.1098    2749.8966    1719.9235    1029.9731    245.42693    921.53229    25611.853   0.63308659 
   65000        65000    2894.4901     2687.853    1709.4098    978.44325    243.92665    553.21158    25611.853   0.63308659 
   66000        66000    2366.3213    2739.4195    1748.5711    990.84835    249.51484   -998.86379    25611.853   0.63308659 
   67000        67000    2626.1587    2763.1312    1721.8821    1041.2491     245.7064   -366.70466    25611.853   0.63308659 
   68000        68000    1969.2264    2763.1662    1759.5034    1003.6627    251.07484   -2125.5469    25611.853   0.63308659 
   69000        69000    2800.8435    2758.5892    1731.5206    1027.0685    247.08179    113.12403    25611.853   0.63308659 
   70000        70000     3027.697    2761.5312    1729.1477    1032.3835    246.74318    712.58275    25611.853   0.63308659 
   71000        71000    2865.0498    2722.9025    1732.7765    990.12596      247.261    380.55871    25611.853   0.63308659 
   72000        72000    2203.4675    2767.5713    1731.3666    1036.2047    247.05981   -1510.2268    25611.853   0.63308659 
   73000        73000    2505.7965    2761.5644    1744.0495     1017.515    248.86961   -684.74551    25611.853   0.63308659 
   74000        74000    2367.8909    2668.5172    1715.0254    953.49185    244.72798   -804.84099    25611.853   0.63308659 
   75000        75000    3208.3058     2762.799    1749.8643    1012.9346    249.69937    1192.7172    25611.853   0.63308659 
   76000        76000    2027.1801    2682.6858    1709.5898    973.09599    243.95234   -1754.9292    25611.853   0.63308659 
   77000        77000    2581.6822    2777.6764    1733.4802    1044.1962    247.36142   -524.71844    25611.853   0.63308659 
   78000        78000    2495.4052    2664.7385    1729.0024    935.73617    246.72244   -453.34151    25611.853   0.63308659 
   79000        79000     2153.829     2762.207    1768.0394    994.16766    252.29288   -1628.7582    25611.853   0.63308659 
   80000        80000    1846.3267     2666.773    1708.3572    958.41584    243.77645   -2196.5106    25611.853   0.63308659 
   81000        81000    2732.4566    2697.4553    1758.8029    938.65241    250.97487    93.706001    25611.853   0.63308659 
   82000        82000    2773.4294    2755.2177    1769.7699    985.44782    252.53983    48.756576    25611.853   0.63308659 
   83000        83000     2485.685    2685.0974    1731.3818     953.7156    247.06197    -533.8696    25611.853   0.63308659 
   84000        84000    3558.1734    2712.9871    1755.6418    957.34525     250.5238    2262.7447    25611.853   0.63308659 
   85000        85000    3088.5942    2762.0796    1757.8788    1004.2008    250.84301    874.14941    25611.853   0.63308659 
   86000        86000    2586.3541    2767.5334    1758.6302    1008.9032    250.95023   -485.05601    25611.853   0.63308659 
   87000        87000    2233.6842     2684.976     1725.248    959.72799     246.1867   -1208.2046    25611.853   0.63308659 
   88000        88000    3227.1282    2734.6125    1703.4384    1031.1741    243.07455    1318.5698    25611.853   0.63308659 
   89000        89000    3285.0751    2724.5781    1705.2535    1019.3246    243.33357    1500.5706    25611.853   0.63308659 
   90000        90000    2942.4937    2796.9869    1770.3379     1026.649    252.62087     389.5528    25611.853   0.63308659 
   91000        91000    2792.8507    2742.0445    1752.2373    989.80719    250.03798    136.01916    25611.853   0.63308659 
   92000        92000     2246.583    2710.8724    1772.5381    938.33433    252.93483   -1243.0021    25611.853   0.63308659 
   93000        93000    3014.6606    2777.8716    1723.7119    1054.1597    245.96752    633.93476    25611.853   0.63308659 
   94000        94000     2907.137     2744.356      1738.12     1006.236    248.02349    435.79951    25611.853   0.63308659 
   95000        95000    2648.6129    2676.2287    1710.2426    965.98613    244.04549   -73.933448    25611.853   0.63308659 
   96000        96000    3336.1681    2744.9805     1747.461    997.51946    249.35643    1582.7359    25611.853   0.63308659 
   97000        97000    3008.0757    2681.6998    1723.7214    957.97843    245.96886    873.77801    25611.853   0.63308659 
   98000        98000    3056.2674    2750.0002    1763.6093    986.39096    251.66073    819.94287    25611.853   0.63308659 
   99000        99000    2811.9486     2772.263    1715.8211     1056.442    244.84152    106.24676    25611.853   0.63308659 
  100000       100000    2820.3559    2800.0029    1763.4939     1036.509    251.64426    54.489196    25611.853   0.63308659 
  101000       101000    2935.1276    2710.1141    1728.9002    981.21389    246.70787    602.40935    25611.853   0.63308659 
  102000       102000    2543.1529    2750.0984    1800.3834    949.71504    256.90826   -554.03767    25611.853   0.63308659 
  103000       103000    2171.5876     2697.263    1758.5157    938.74737    250.93388   -1407.3456    25611.853   0.63308659 
  104000       104000    2340.6688    2774.2472    1776.3206    997.92665    253.47458   -1160.7824    25611.853   0.63308659 
  105000       105000    2339.2602    2751.8866    1750.9334    1000.9532    249.85192   -1104.6892    25611.853   0.63308659 
  106000       106000    2615.2672    2739.5036     1740.166    999.33753    248.31546   -332.60738    25611.853   0.63308659 
  107000       107000    3020.9432    2739.0999    1756.0523    983.04757    250.58238    754.55478    25611.853   0.63308659 
  108000       108000    3273.6182    2795.9179    1788.7067    1007.2112    255.24204    1278.9059    25611.853   0.63308659 
  109000       109000    2964.4807     2689.704    1720.5122    969.19175    245.51093    735.63607    25611.853   0.63308659 
  110000       110000    3321.0279    2673.9588    1742.0294    931.92941    248.58135    1732.3426    25611.853   0.63308659 
  111000       111000    2423.0063    2766.2111    1767.5426    998.66857    252.22199   -918.83289    25611.853   0.63308659 
  112000       112000    2802.4532    2664.5831     1680.708    983.87513      239.831    369.10774    25611.853   0.63308659 
  113000       113000    2635.5798    2715.8448    1759.6825    956.16237    251.10038   -214.88654    25611.853   0.63308659 
  114000       114000    2408.9337    2751.8121    1765.9767    985.83543    251.99854   -917.95896    25611.853   0.63308659 
  115000       115000    2816.1154    2738.2708    1755.9301     982.3407    250.56493    208.40669    25611.853   0.63308659 
  116000       116000    3649.9995    2833.0985     1810.435    1022.6635    258.34259    2187.0189    25611.853   0.63308659 
  117000       117000    3594.6234    2766.0223    1761.2572    1004.7651    251.32509    2218.3424    25611.853   0.63308659 
  118000       118000    2859.8791    2760.3106    1724.5875    1035.7231    246.09246    266.56632    25611.853   0.63308659 
  119000       119000    2940.7817    2768.9338     1744.668    1024.2658    248.95787    460.07377    25611.853   0.63308659 
  120000       120000    2175.7916    2718.5313    1700.3415    1018.1899    242.63264   -1453.0304    25611.853   0.63308659 
  121000       121000      2662.05    2739.1522    1748.7923    990.35987     249.5464   -206.41913    25611.853   0.63308659 
  122000       122000    3013.1816    2653.0952    1727.6121     925.4831    246.52406    964.02847    25611.853   0.63308659 
  123000       123000    2595.4118    2796.1155    1841.5736    954.54183    262.78596   -537.32669    25611.853   0.63308659 
  124000       124000    3498.4217    2738.6666    1750.0296    988.63697    249.72296    2034.0273    25611.853   0.63308659 
  125000       125000    3109.8753    2668.2683    1734.4688     933.7995    247.50249    1182.2766    25611.853   0.63308659 
  126000       126000    2024.9229     2773.618    1781.6845    991.93353    254.23999    -2004.417    25611.853   0.63308659 
  127000       127000    2910.6817    2760.6174    1748.9274    1011.6901    249.56567    401.75426    25611.853   0.63308659 
  128000       128000    2436.9408    2668.4152    1699.0565    969.35874    242.44927    -619.7065    25611.853   0.63308659 
  129000       129000    1673.9749    2751.3968     1774.322    977.07486    253.18939   -2884.4893    25611.853   0.63308659 
  130000       130000    2653.0537    2654.5457    1696.3323    958.21338    242.06055    -3.994548    25611.853   0.63308659 
  131000       131000    2712.4407    2731.1696      1731.84    999.32958    247.12737   -50.141142    25611.853   0.63308659 
  132000       132000    2183.4472     2750.256    1764.4144    985.84165    251.77561   -1517.4686    25611.853   0.63308659 
  133000       133000    2308.7802    2662.8275    1736.8317    925.99577    247.83967   -947.86039    25611.853   0.63308659 
  134000       134000     2527.375    2764.2395    1746.3416    1017.8979    249.19669   -634.13707    25611.853   0.63308659 
  135000       135000    3144.4331    2720.4387    1736.0443    984.39438     247.7273    1135.1237    25611.853   0.63308659 
  136000       136000    2704.7531    2695.4684    1683.7118    1011.7567    240.25964    24.857045    25611.853   0.63308659 
  137000       137000    2956.0396    2771.0908    1754.4294    1016.6614    250.35079    495.14748    25611.853   0.63308659 
  138000       138000     3217.664    2645.6472     1704.811    940.83615    243.27042    1531.4116    25611.853   0.63308659 
  139000       139000    2618.9103     2757.922    1745.7241     1012.198    249.10857   -372.16407    25611.853   0.63308659 
  140000       140000    2307.0437    2690.4884       1723.7    966.78845    245.96581   -1026.5636    25611.853   0.63308659 
  141000       141000    2643.1845    2786.3773    1764.0614    1022.3159    251.72524   -383.35768    25611.853   0.63308659 
  142000       142000    2396.6825    2752.8324    1759.7575    993.07495    251.11108   -953.48946    25611.853   0.63308659 
  143000       143000    3154.4091    2689.8976    1727.4959     962.4017    246.50748    1243.5966    25611.853   0.63308659 
  144000       144000    2978.9305    2726.9379    1736.6049      990.333    247.80729    674.63828    25611.853   0.63308659 
  145000       145000     2800.027    2704.1361    1706.6182    997.51789     243.5283    256.72066    25611.853   0.63308659 
  146000       146000    3277.2615    2692.6611    1722.2556    970.40551    245.75971    1565.1002    25611.853   0.63308659 
  147000       147000    2793.3393    2764.9447     1791.168    973.77664    255.59326    76.018326    25611.853   0.63308659 
  148000       148000    3572.8835    2762.9943    1769.1537    993.84061    252.45189     2168.247    25611.853   0.63308659 
  149000       149000    3091.9642    2781.0851    1755.9732    1025.1119    250.57109    832.29005    25611.853   0.63308659 
  150000       150000    2608.3343    2752.5666    1768.7186    983.84798    252.38981   -386.14076    25611.853   0.63308659 
  151000       151000    2247.4543    2671.1822    1731.8775    939.30472    247.13271   -1134.4104    25611.853   0.63308659 
  152000       152000    3369.6006    2741.0999     1748.869    992.23089    249.55734    1682.6311    25611.853   0.63308659 
  153000       153000    2683.4717    2764.9776     1773.943     991.0346    253.13531   -218.20881    25611.853   0.63308659 
  154000       154000    3199.3986    2713.5933    1701.5823     1012.011    242.80969    1300.6048    25611.853   0.63308659 
  155000       155000    2798.9973    2768.8429    1776.9381    991.90478     253.5627    80.729796    25611.853   0.63308659 
  156000       156000     2655.193    2781.6792    1787.4207    994.25851    255.05853   -338.63058    25611.853   0.63308659 
  157000       157000    3602.4227     2744.416    1755.3805    989.03552    250.48651    2297.0677    25611.853   0.63308659 
  158000       158000    3224.3741    2701.6196    1743.7471    957.87248    248.82646    1399.5257    25611.853   0.63308659 
  159000       159000    2853.3918     2755.325    1758.0988    997.22623     250.8744    262.54589    25611.853   0.63308659 
  160000       160000    2738.5213    2730.5328    1723.2548    1007.2779    245.90229    21.387162    25611.853   0.63308659 
  161000       161000    2897.6238    2733.2992     1735.526    997.77314    247.65335    439.93216    25611.853   0.63308659 
  162000       162000    3256.6019     2672.072    1706.7134    965.35856    243.54189    1564.9117    25611.853   0.63308659 
  163000       163000    3358.1482    2781.2009    1787.8608    993.34002    255.12133    1544.6117    25611.853   0.63308659 
  164000       164000    3120.4792    2749.1262    1737.5814    1011.5448    247.94664    994.19151    25611.853   0.63308659 
  165000       165000    3190.8275    2705.1176    1780.2827    924.83499    254.03996    1300.3493    25611.853   0.63308659 
  166000       166000    2173.2452    2719.7212    1759.4584    960.26283    251.06841   -1463.0335    25611.853   0.63308659 
  167000       167000    2834.9709    2827.8641    1783.1584    1044.7058    254.45031    19.026189    25611.853   0.63308659 
  168000       168000    3473.1324     2772.514    1772.7319    999.78216    252.96249    1875.7053    25611.853   0.63308659 
  169000       169000    2407.0908    2611.5525    1672.5301    939.02245    238.66405   -547.38792    25611.853   0.63308659 
  170000       170000    3055.4782     2749.446    1721.5111    1027.9349    245.65346    819.31367    25611.853   0.63308659 
  171000       171000    2568.1976    2688.2933     1718.091    970.20229    245.16543   -321.52183    25611.853   0.63308659 
  172000       172000    2461.7281    2724.8852    1728.2545    996.63066    246.61573   -704.52779    25611.853   0.63308659 
  173000       173000    2932.5616    2769.5061    1776.8018    992.70433    253.54325     436.5345    25611.853   0.63308659 
  174000       174000    2907.9124    2643.1548    1695.4785    947.67634    241.93871    708.81282    25611.853   0.63308659 
  175000       175000    2955.4894    2801.7888    1792.5425    1009.2463    255.78939    411.48947    25611.853   0.63308659 
  176000       176000    3106.0567    2750.4377    1792.1678    958.26982    255.73593    952.06841    25611.853   0.63308659 
  177000       177000    2495.9815    2694.4474    1693.7282    1000.7192    241.68894   -531.33558    25611.853   0.63308659 
  178000       178000    2157.5054    2729.7042      1721.07    1008.6342    245.59053   -1531.8988    25611.853   0.63308659 
  179000       179000    2709.5539    2717.2845    1729.8001     987.4844    246.83628   -20.696626    25611.853   0.63308659 
  180000       180000    3160.3923    2720.3968    1731.7186    988.67823    247.11003    1177.9623    25611.853   0.63308659 
  181000       181000    2653.9751    2722.7654    1739.4966    983.26876    248.21994   -184.16644    25611.853   0.63308659 
  182000       182000    3152.0228    2768.2385    1737.4529    1030.7856     247.9283    1027.4726    25611.853   0.63308659 
  183000       183000    2323.4271    2719.0157    1727.0091    992.00665    246.43801   -1059.0756    25611.853   0.63308659 
  184000       184000    2907.0199    2810.8831    1810.1148    1000.7683    258.29689    257.37862    25611.853   0.63308659 
  185000       185000    3104.2765    2739.3674    1769.4076    969.95974    252.48813    976.93984    25611.853   0.63308659 
  186000       186000     2088.605    2720.5263    1747.7713    972.75504     249.4007   -1691.7885    25611.853   0.63308659 
  187000       187000    2834.4409    2757.1037    1769.3758    987.72786    252.48359     207.0483    25611.853   0.63308659 
  188000       188000    2554.8217    2743.0437    1732.7302    1010.3134     247.2544   -503.91058    25611.853   0.63308659 
  189000       189000      2723.93    2754.6166    1780.0357    974.58089    254.00472   -82.154661    25611.853   0.63308659 
  190000       190000    3037.4343    2733.9107    1729.7895    1004.1212    246.83477    812.59745    25611.853   0.63308659 
  191000       191000    2483.8491    2676.3063    1701.7146    974.59172    242.82857   -515.24903    25611.853   0.63308659 
  192000       192000    3385.2885    2787.7638    1784.1856    1003.5782     254.5969    1599.7016    25611.853   0.63308659 
  193000       193000    2549.3892    2747.3836     1732.725    1014.6586    247.25366   -530.07348    25611.853   0.63308659 
  194000       194000    2844.8763    2732.4795    1747.3447     985.1348    249.33983    300.91027    25611.853   0.63308659 
  195000       195000    2908.7062    2791.4513    1767.0648    1024.3865    252.15381    313.91665    25611.853   0.63308659 
  196000       196000    2891.3642    2689.2293    1681.2411    1007.9881    239.90709    541.15848    25611.853   0.63308659 
  197000       197000    2577.9192    2718.8432    1768.0314    950.81185    252.29174   -377.28373    25611.853   0.63308659 
  198000       198000    2689.9748    2781.2426    1817.2579    963.98469    259.31619   -244.34339    25611.853   0.63308659 
  199000       199000    2601.4908    2702.7288    1662.6357    1040.0932    237.25215   -271.03596    25611.853   0.63308659 
  200000       200000    2792.9576    2783.4287    1781.6812    1001.7475    254.23952    25.510798    25611.853   0.63308659 
  201000       201000    3394.0432    2751.0058    1767.7246    983.28114    252.24797     1721.549    25611.853   0.63308659 
  202000       202000    3304.9508    2747.4431    1718.4281     1029.015    245.21353    1492.5673    25611.853   0.63308659 
  203000       203000    2712.2564    2817.3105    1781.6767    1035.6338    254.23888   -281.25229    25611.853   0.63308659 
  204000       204000    2592.5258    2743.2127    1748.8036    994.40913      249.548   -403.42108    25611.853   0.63308659 
  205000       205000    3570.1176    2789.2807    1761.3881    1027.8926    251.34377    2090.4675    25611.853   0.63308659 
  206000       206000    3165.4806    2717.9729    1750.7367    967.23619    249.82385    1198.0741    25611.853   0.63308659 
  207000       207000    2936.3454     2814.854    1774.9426    1039.9114    253.27795    325.25856    25611.853   0.63308659 
  208000       208000     3405.934    2709.7882    1754.0316    955.75658    250.29403    1863.7314    25611.853   0.63308659 
  209000       209000    3187.9702    2747.1011    1760.1329    986.96814    251.16466    1180.3011    25611.853   0.63308659 
  210000       210000    3598.4499    2683.0968    1722.7086    960.38824    245.82434     2450.596    25611.853   0.63308659 
  211000       211000    2348.8733    2747.3805    1782.2523    965.12818    254.32102    -1066.889    25611.853   0.63308659 
  212000       212000    2708.2608    2802.8292     1759.729    1043.1002    251.10703   -253.17995    25611.853   0.63308659 
  213000       213000    2591.5433    2712.6049    1766.9194    945.68544    252.13307   -324.10772    25611.853   0.63308659 
  214000       214000    2593.9226    2661.9021    1725.8729    936.02922    246.27587   -181.99559    25611.853   0.63308659 
  215000       215000    2741.3661    2758.2237    1760.2067    998.01693     251.1752   -45.131216    25611.853   0.63308659 
  216000       216000    2696.0232    2751.0486    1780.6879    970.36077    254.09778   -147.31476    25611.853   0.63308659 
  217000       217000    2444.4181    2726.1095    1763.0742    963.03533    251.58437   -754.14809    25611.853   0.63308659 
  218000       218000    2476.0151    2638.3912    1672.3121    966.07911    238.63295   -434.71562    25611.853   0.63308659 
  219000       219000    2690.9368     2765.674    1754.2721    1011.4019    250.32834   -200.08748    25611.853   0.63308659 
  220000       220000    1913.1453    2647.7802    1698.8725    948.90766    242.42302   -1966.7748    25611.853   0.63308659 
  221000       221000    1636.0632    2732.5377    1726.7329    1005.8049    246.39859    -2935.497    25611.853   0.63308659 
  222000       222000    2603.0377    2768.9288     1760.507    1008.4218    251.21804   -444.12598    25611.853   0.63308659 
  223000       223000    3170.9167    2721.1464    1739.4929    981.65347     248.2194    1204.1316    25611.853   0.63308659 
  224000       224000    2650.3905    2687.9006    1743.6739    944.22663    248.81602   -100.42249    25611.853   0.63308659 
  225000       225000    1919.4084    2734.3166     1766.452    967.86455    252.06637   -2181.6836    25611.853   0.63308659 
  226000       226000    2186.4313    2773.1341    1746.5141      1026.62    249.22131    -1570.729    25611.853   0.63308659 
  227000       227000     2886.141    2818.7604     1789.062    1029.6984    255.29274    180.39226    25611.853   0.63308659 
  228000       228000    2660.7798    2725.2565    1713.6975     1011.559     244.5385   -172.61799    25611.853   0.63308659 
  229000       229000    2649.2847    2811.4532    1801.3998    1010.0534     257.0533   -434.16001    25611.853   0.63308659 
  230000       230000    2722.2958    2767.6048    1772.0381    995.56662    252.86349   -121.30181    25611.853   0.63308659 
  231000       231000    2552.6953    2718.8961    1733.0753    985.82079    247.30364   -444.95519    25611.853   0.63308659 
  232000       232000    2627.0142    2794.7332    1736.4078    1058.3254    247.77917   -449.01971    25611.853   0.63308659 
  233000       233000    2753.6711    2720.0331    1716.7557    1003.2774    244.97489    90.056044    25611.853   0.63308659 
  234000       234000    3498.8433    2796.6026    1775.2924    1021.3102    253.32786    1880.0489    25611.853   0.63308659 
  235000       235000    3008.4652     2697.612    1743.5106    954.10142    248.79272    832.22035    25611.853   0.63308659 
  236000       236000    3131.1482    2720.3285    1702.8019    1017.5266    242.98373    1099.8524    25611.853   0.63308659 
  237000       237000    2341.1633    2718.3299    1752.8366    965.49333     250.1235   -1009.7558    25611.853   0.63308659 
  238000       238000    3005.3852      2773.75     1780.721      993.029    254.10251    620.13709    25611.853   0.63308659 
  239000       239000    2802.6931    2680.0151    1753.3146    926.70052    250.19171     328.4354    25611.853   0.63308659 
  240000       240000    2978.8633    2837.9202    1759.3684    1078.5517    251.05557    377.33502    25611.853   0.63308659 
  241000       241000     2876.431    2740.3581    1714.8246    1025.5335    244.69933     364.2963    25611.853   0.63308659 
  242000       242000    3003.5558    2693.6994    1731.0158     962.6836    247.00976    829.55185    25611.853   0.63308659 
  243000       243000    3088.1037    2754.5752    1734.0556    1020.5196    247.44353    892.92722    25611.853   0.63308659 
  244000       244000     2839.007    2770.0678    1785.2567    984.81107    254.74974    184.56503    25611.853   0.63308659 
  245000       245000    2800.7672    2830.0998     1807.744    1022.3558    257.95859   -78.529657    25611.853   0.63308659 
  246000       246000    2990.5845    2722.6206    1755.4244    967.19611    250.49278    717.39679    25611.853   0.63308659 
  247000       247000     2690.765    2701.7166    1740.4928    961.22378    248.36208   -29.319751    25611.853   0.63308659 
  248000       248000    2625.8948    2717.3669    1697.4572    1019.9097    242.22106   -244.89055    25611.853   0.63308659 
  249000       249000    2219.5804    2753.3098    1736.8183    1016.4915    247.83774   -1428.9077    25611.853   0.63308659 
  250000       250000    3573.5848    2739.2113    1717.8889    1021.3224    245.13659    2233.7965    25611.853   0.63308659 
  251000       251000    3033.6084    2793.2511     1787.454    1005.7972    255.06328    643.48782    25611.853   0.63308659 
  252000       252000    2334.3409    2687.9384    1733.3833    954.55516    247.34758   -946.65626    25611.853   0.63308659 
  253000       253000    2619.0638     2765.589     1762.395    1003.1941    251.48745   -392.27936    25611.853   0.63308659 
  254000       254000    2779.1274    2728.6082    1739.3694    989.23874    248.20179    135.25069    25611.853   0.63308659 
  255000       255000    2995.3156    2691.6159    1738.4105    953.20535    248.06495    813.06927    25611.853   0.63308659 
  256000       256000    2528.6554    2681.4286    1731.9193    949.50927    247.13868   -409.00661    25611.853   0.63308659 
  257000       257000    3223.4966    2771.8006     1789.926    981.87463    255.41602     1209.287    25611.853   0.63308659 
  258000       258000    2745.9361    2765.6658    1704.7437    1060.9221    243.26082   -52.820544    25611.853   0.63308659 
  259000       259000    2857.2462    2701.9313    1737.6001    964.33114    247.94931    415.81122    25611.853   0.63308659 
  260000       260000    3069.1767    2744.6632    1748.5317    996.13148    249.50922    868.79196    25611.853   0.63308659 
  261000       261000    2753.1971     2682.799    1720.5383    962.26075    245.51464    188.47065    25611.853   0.63308659 
  262000       262000    3132.4886    2763.9475    1752.6193    1011.3282    250.09249    986.66346    25611.853   0.63308659 
  263000       263000    2591.2459    2736.1008    1760.6373    975.46349    251.23664   -387.80778    25611.853   0.63308659 
  264000       264000    2603.1277    2778.8177    1744.2401    1034.5777    248.89681   -470.35992    25611.853   0.63308659 
  265000       265000     2386.525    2744.5163    1748.8666    995.64961      249.557    -958.4191    25611.853   0.63308659 
  266000       266000     2630.889    2697.3547    1734.0085    963.34625    247.43679   -177.94293    25611.853   0.63308659 
  267000       267000     3267.412    2769.3199    1773.5034    995.81651    253.07258    1333.4992    25611.853   0.63308659 
  268000       268000    3145.1394    2800.8067    1806.3217    994.48494    257.75564     921.8526    25611.853   0.63308659 
  269000       269000    2404.5077    2717.7454    1741.2355    976.50987    248.46807   -838.60432    25611.853   0.63308659 
  270000       270000    2648.7627    2697.2363    1757.5249    939.71146     250.7925   -129.77425    25611.853   0.63308659 
  271000       271000    2296.6003    2762.8605    1719.3485    1043.5119    245.34488   -1248.2782    25611.853   0.63308659 
  272000       272000    3046.5773    2714.4178    1728.1097    986.30809    246.59507    889.26202    25611.853   0.63308659 
  273000       273000    2183.6249    2810.4571    1768.0325    1042.4246     252.2919    -1678.164    25611.853   0.63308659 
  274000       274000    3252.9909    2735.9127     1767.181    968.73173    252.17039    1384.3292    25611.853   0.63308659 
  275000       275000    2838.7946    2779.7494     1730.537    1049.2124    246.94142    158.07681    25611.853   0.63308659 
  276000       276000    2620.3826    2706.2374    1706.6118    999.62561    243.52739   -229.85182    25611.853   0.63308659 
  277000       277000    2420.7456    2762.9083    1762.1018    1000.8065    251.44561   -916.04266    25611.853   0.63308659 
  278000       278000    2792.2823    2718.3185     1731.798     986.5205    247.12137    198.01677    25611.853   0.63308659 
  279000       279000    3012.3473     2711.889    1770.1434    941.74563    252.59312    804.39113    25611.853   0.63308659 
  280000       280000    2220.9122    2753.6129    1777.2656    976.34724    253.60944   -1426.1538    25611.853   0.63308659 
  281000       281000    2727.1737     2748.649    1742.2085    1006.4405     248.6069   -57.494013    25611.853   0.63308659 
  282000       282000    2653.5988    2702.2152    1746.7636    955.45157    249.25691   -130.15646    25611.853   0.63308659 
  283000       283000    2526.6752     2733.305    1724.3666    1008.9384    246.06094   -553.19223    25611.853   0.63308659 
  284000       284000    2295.2581    2787.6854    1797.3038    990.38168    256.46881   -1318.3333    25611.853   0.63308659 
  285000       285000    2874.3587    2724.2327    1739.3962    984.83647    248.20561     401.9195    25611.853   0.63308659 
  286000       286000    2794.2677    2737.0649    1747.0769    989.98797    249.30161    153.14418    25611.853   0.63308659 
  287000       287000    2777.2914    2787.6138    1810.9338    976.68002    258.41377   -27.635375    25611.853   0.63308659 
  288000       288000    2697.5736    2716.2414    1735.3278     980.9136    247.62505   -49.977632    25611.853   0.63308659 
  289000       289000    3065.8686    2763.9983    1782.5199    981.47833    254.35921    808.17157    25611.853   0.63308659 
  290000       290000    2862.2621    2684.3132    1724.7003     959.6129    246.10855    476.40745    25611.853   0.63308659 
  291000       291000    2944.8251    2776.5582    1766.5716    1009.9866    252.08344    450.48643    25611.853   0.63308659 
  292000       292000    2636.7595    2800.4691    1794.2139    1006.2553    256.02789   -438.28571    25611.853   0.63308659 
  293000       293000    2903.6655    2714.0736    1743.5059    970.56761    248.79205     507.5783    25611.853   0.63308659 
  294000       294000    3182.9052    2774.1613     1739.661    1034.5002     248.2434    1094.2949    25611.853   0.63308659 
  295000       295000    2285.9324    2816.3597    1783.6013    1032.7584    254.51351   -1420.0675    25611.853   0.63308659 
  296000       296000    2121.7666     2713.549    1753.5069     960.0421    250.21915   -1584.3283    25611.853   0.63308659 
  297000       297000    2594.1646    2716.8034    1734.7635    982.03989    247.54454    -328.3305    25611.853   0.63308659 
  298000       298000    3201.7909    2747.5018     1743.024    1004.4779    248.72327    1216.2292    25611.853   0.63308659 
  299000       299000    2647.3519    2838.9665    1809.2272    1029.7393    258.17024   -512.99337    25611.853   0.63308659 
  300000       300000     3209.885    2730.8749    1759.3112    971.56366    251.04741    1282.4125    25611.853   0.63308659 
  301000       301000    2516.4759    2696.5451    1746.5048    950.04034    249.21998   -482.08398    25611.853   0.63308659 
  302000       302000    2799.2202    2741.7903    1735.4114    1006.3789    247.63699    153.75225    25611.853   0.63308659 
  303000       303000    2882.5987    2783.4342    1801.4027    982.03144    257.05371    265.48474    25611.853   0.63308659 
  304000       304000    2796.7039    2688.1346     1711.235    976.89956     244.1871    290.66326    25611.853   0.63308659 
  305000       305000     2691.654     2704.289    1733.2211    971.06785    247.32444   -33.826515    25611.853   0.63308659 
  306000       306000    3504.2534    2789.6463    1774.1344    1015.5118    253.16263    1913.1562    25611.853   0.63308659 
  307000       307000    2781.1423    2762.6245    1789.0939    973.53056    255.29729    49.576145    25611.853   0.63308659 
  308000       308000    2669.4405    2704.5358    1751.5737    952.96211    249.94329   -93.957617    25611.853   0.63308659 
  309000       309000    2799.3785    2734.1101    1756.4817    977.62835    250.64365    174.73767    25611.853   0.63308659 
  310000       310000    3120.3098    2733.4975    1705.5526    1027.9449    243.37624    1035.5795    25611.853   0.63308659 
  311000       311000    2478.3077     2753.008    1773.7456    979.26244    253.10714   -735.43153    25611.853   0.63308659 
  312000       312000     3221.258    2795.6862    1758.5054    1037.1808    250.93242    1139.3469    25611.853   0.63308659 
  313000       313000    2457.7738     2764.827    1725.7272    1039.0998    246.25509   -822.04707    25611.853   0.63308659 
  314000       314000    2982.6566    2643.9513    1696.2942    947.65713     242.0551    906.78654    25611.853   0.63308659 
  315000       315000    3110.8866    2729.5822    1736.8004    992.78178    247.83519    1020.8336    25611.853   0.63308659 
  316000       316000    3111.0051    2773.1375    1770.0389    1003.0986    252.57821    904.54412    25611.853   0.63308659 
  317000       317000    2760.7773    2658.7737    1693.7273    965.04641    241.68882    273.08532    25611.853   0.63308659 
  318000       318000    2031.9405     2757.252    1771.6885    985.56352     252.8136   -1941.8141    25611.853   0.63308659 
  319000       319000     2858.389    2728.8005     1783.587     945.2135    254.51147     346.9362    25611.853   0.63308659 
  320000       320000    2635.5658    2669.2828    1750.7692    918.51361    249.82849    -90.26752    25611.853   0.63308659 
  321000       321000     3128.023    2719.3869    1738.5037    980.88322    248.07824    1094.0063    25611.853   0.63308659 
  322000       322000    3132.7059    2787.5725    1767.1651    1020.4073    252.16813     923.9961    25611.853   0.63308659 
  323000       323000    2742.5615    2699.9446    1724.2969    975.64774    246.05099    114.09449    25611.853   0.63308659 
  324000       324000     2324.013    2728.4832    1729.1577    999.32551    246.74461   -1082.8534    25611.853   0.63308659 
  325000       325000    2939.4585     2812.471    1792.6687    1019.8022    255.80741    339.97279    25611.853   0.63308659 
  326000       326000     2443.131    2778.2888    1765.1757    1013.1131    251.88425   -897.28921    25611.853   0.63308659 
  327000       327000    2245.6821    2715.5269    1742.8113    972.71558    248.69293   -1257.8751    25611.853   0.63308659 
  328000       328000    2711.0668    2763.2599    1755.0403    1008.2196    250.43796    -139.7323    25611.853   0.63308659 
  329000       329000    2116.1944    2743.3059    1757.7216    985.58427    250.82058   -1678.9118    25611.853   0.63308659 
  330000       330000    2716.0912    2766.2428    1762.0774    1004.1654    251.44213    -134.2666    25611.853   0.63308659 
  331000       331000    2706.2311    2795.5282    1764.1902     1031.338    251.74362   -239.06748    25611.853   0.63308659 
  332000       332000    2764.5494    2731.3558    1734.2796    997.07622    247.47548    88.866297    25611.853   0.63308659 
  333000       333000    3164.6212    2714.4341    1757.7951    956.63901    250.83106    1205.2474    25611.853   0.63308659 
  334000       334000    2894.6695    2764.1198    1779.4623    984.65747     253.9229    349.50937    25611.853   0.63308659 
  335000       335000    2086.3358    2714.4877    1706.0716    1008.4161    243.45031    -1681.697    25611.853   0.63308659 
  336000       336000    3096.5214    2749.1759    1775.4165    973.75939    253.34558     929.9183    25611.853   0.63308659 
  337000       337000     2748.625    2805.0821     1779.029    1026.0531    253.86106   -151.14761    25611.853   0.63308659 
  338000       338000    2538.8781    2776.5754    1783.4724    993.10307    254.49512    -636.3667    25611.853   0.63308659 
  339000       339000    2655.5151    2779.8584    1768.9095    1010.9489    252.41704   -332.89373    25611.853   0.63308659 
  340000       340000    2777.8979    2832.3123    1774.8526    1057.4597    253.26511     -145.679    25611.853   0.63308659 
  341000       341000    3383.7415    2767.2769    1748.4576    1018.8193    249.49863    1650.4079    25611.853   0.63308659 
  342000       342000    3085.9604    2693.6497    1735.6219    958.02775    247.66703    1050.2999    25611.853   0.63308659 
  343000       343000     3215.739    2752.6366    1768.4491    984.18754    252.35135    1239.8243    25611.853   0.63308659 
  344000       344000    2608.9865     2696.628     1708.505    988.12298    243.79754   -234.63502    25611.853   0.63308659 
  345000       345000    2787.1657    2803.0626    1789.2285    1013.8341     255.3165   -42.559204    25611.853   0.63308659 
  346000       346000    2500.0369    2716.2913    1735.2633    981.02807    247.61585   -578.95933    25611.853   0.63308659 
  347000       347000    3074.0346    2800.9557    1805.7086    995.24711    257.66815    731.09048    25611.853   0.63308659 
  348000       348000    2491.7805    2755.0389    1773.0996    981.93937    253.01495   -704.79929    25611.853   0.63308659 
  349000       349000    2158.4162    2695.3519    1709.4993    985.85265    243.93942    -1437.492    25611.853   0.63308659 
  350000       350000    2709.9303     2783.543     1771.124     1012.419    252.73305   -197.07686    25611.853   0.63308659 
  351000       351000    2868.8021    2740.0309    1742.9619    997.06908    248.71441     344.7479    25611.853   0.63308659 
  352000       352000     2808.673    2752.3882    1771.7745    980.61376    252.82587     150.6863    25611.853   0.63308659 
  353000       353000    2561.9936    2718.7113     1778.608    940.10326    253.80099    -419.5668    25611.853   0.63308659 
  354000       354000    2825.2994    2697.3712    1727.5393    969.83183    246.51367    342.49126    25611.853   0.63308659 
  355000       355000    2705.0931    2778.9266    1736.0514    1042.8752    247.72832   -197.66824    25611.853   0.63308659 
  356000       356000    2584.0983    2714.2647    1729.6749    984.58981    246.81842   -348.48345    25611.853   0.63308659 
  357000       357000       2638.3    2750.1369    1737.6205    1012.5164    247.95221   -299.41128    25611.853   0.63308659 
  358000       358000    2711.4634    2799.0001    1767.5111     1031.489     252.2175    -234.3543    25611.853   0.63308659 
  359000       359000    2422.1839    2737.5986    1716.7228    1020.8759    244.97019   -844.43273    25611.853   0.63308659 
  360000       360000    3116.0616    2719.5484    1730.5456    989.00276    246.94266    1061.5507    25611.853   0.63308659 
  361000       361000     3110.854    2790.5857    1784.3328    1006.2529     254.6179    857.42682    25611.853   0.63308659 
  362000       362000     2607.718    2793.4513    1767.3874    1026.0639    252.19984   -497.24781    25611.853   0.63308659 
  363000       363000    2619.4617    2745.4942    1748.6366    996.85753    249.52418   -337.41575    25611.853   0.63308659 
  364000       364000    3041.5256    2758.7916    1760.6932    998.09831    251.24462    756.93944    25611.853   0.63308659 
  365000       365000    3098.4569    2848.3513     1786.525    1061.8263    254.93072    669.58608    25611.853   0.63308659 
  366000       366000    2832.1061    2699.2115    1742.6453    956.56619    248.66924    355.78736    25611.853   0.63308659 
  367000       367000    2900.3001    2668.6822    1715.4528    953.22936    244.78897    620.09085    25611.853   0.63308659 
  368000       368000    2288.3144    2784.4095    1803.1667    981.24281    257.30542   -1328.1527    25611.853   0.63308659 
  369000       369000    2682.7074    2684.8171    1717.0972    967.71989    245.02362    -5.648176    25611.853   0.63308659 
  370000       370000    2635.0117    2760.9867    1747.0899    1013.8968    249.30347     -337.262    25611.853   0.63308659 
  371000       371000    2587.8747    2698.0099    1726.8958    971.11417    246.42184    -294.8557    25611.853   0.63308659 
  372000       372000    2674.5181    2691.4784    1700.6376    990.84078    242.67489   -45.406169    25611.853   0.63308659 
  373000       373000    2631.9404    2684.9627    1708.1877    976.77507    243.75226   -141.95206    25611.853   0.63308659 
  374000       374000    2893.3096    2743.7031    1759.3149    984.38824    251.04793    400.52849    25611.853   0.63308659 
  375000       375000     2720.928    2755.4935    1763.0538    992.43977    251.58146   -92.539288    25611.853   0.63308659 
  376000       376000    2673.7906    2688.3305    1703.9303    984.40017    243.14475   -38.926327    25611.853   0.63308659 
  377000       377000    2412.8473    2694.8534    1732.3459     962.5075    247.19955   -754.99082    25611.853   0.63308659 
  378000       378000    2790.7715    2798.7082    1800.1256     998.5826    256.87148   -21.248209    25611.853   0.63308659 
  379000       379000    2153.4996    2712.3198    1709.8121    1002.5077    243.98406   -1496.0815    25611.853   0.63308659 
  380000       380000    2525.4167    2750.4116    1768.6611    981.75052    252.38161   -602.35959    25611.853   0.63308659 
  381000       381000    2700.7146    2789.7843     1771.152    1018.6323    252.73704   -238.45872    25611.853   0.63308659 
  382000       382000    2841.4892     2762.372    1730.1589     1032.213    246.88748    211.81364    25611.853   0.63308659 
  383000       383000    2007.6232    2729.0034    1765.9906     963.0128    252.00054   -1931.2895    25611.853   0.63308659 
  384000       384000    1998.1112    2667.9249    1722.8624    945.06241     245.8463   -1793.2345    25611.853   0.63308659 
  385000       385000    3064.6706    2782.8674    1798.9423    983.92511    256.70261    754.44772    25611.853   0.63308659 
  386000       386000    2654.5668     2750.951    1739.3454    1011.6056    248.19836   -258.04119    25611.853   0.63308659 
  387000       387000    2644.7284    2697.6712    1729.7734    967.89778    246.83247   -141.73934    25611.853   0.63308659 
  388000       388000    3045.3367    2730.6363    1728.8118    1001.8245    246.69525     842.5204    25611.853   0.63308659 
  389000       389000    2474.8045    2798.7773    1780.1293     1018.648    254.01807   -867.34464    25611.853   0.63308659 
  390000       390000    3138.3651    2699.3129    1739.6795    959.63339    248.24603    1175.4369    25611.853   0.63308659 
  391000       391000    2700.5536    2752.4748    1769.5443    982.93054    252.50762    -139.0041    25611.853   0.63308659 
  392000       392000    2615.4029    2779.4173     1787.143     992.2743     255.0189   -439.10177    25611.853   0.63308659 
  393000       393000    2904.6787    2735.7891    1776.6852    959.10386    253.52661    452.15365    25611.853   0.63308659 
  394000       394000    3105.2647    2776.5553    1784.0006    992.55469    254.57049    880.02557    25611.853   0.63308659 
  395000       395000    3463.1595    2801.8096     1773.378    1028.4316    253.05468    1770.5753    25611.853   0.63308659 
  396000       396000    2972.2411    2724.5524    1770.4376    954.11476     252.6351    663.11567    25611.853   0.63308659 
  397000       397000    2205.2036    2780.1115    1771.6822    1008.4294     252.8127   -1539.1517    25611.853   0.63308659 
  398000       398000    2363.1368    2708.6647    1745.5779    963.08679    249.08771   -925.05207    25611.853   0.63308659 
  399000       399000    3258.6649    2798.7989    1789.4413    1009.3576    255.34686    1231.1597    25611.853   0.63308659 
  400000       400000    2891.1029     2731.058    1741.8817     989.1763    248.56027     428.4747    25611.853   0.63308659 
  401000       401000    2223.1725     2735.575    1764.9048    970.67028    251.84559   -1371.8113    25611.853   0.63308659 
  402000       402000    2522.7828    2747.7441    1756.8967    990.84742    250.70286   -602.26939    25611.853   0.63308659 
  403000       403000    2786.6671     2707.495    1730.4424    977.05257    246.92793    211.96082    25611.853   0.63308659 
  404000       404000    3181.3635    2767.5644    1791.5657    975.99873    255.65001    1107.8287    25611.853   0.63308659 
  405000       405000    2251.3052     2765.662    1781.0107    984.65137    254.14384   -1377.0432    25611.853   0.63308659 
  406000       406000    2848.0478    2749.5886    1776.9151    972.67351    253.55941     263.5965    25611.853   0.63308659 
  407000       407000    2631.4981    2762.0748     1721.584    1040.4908    245.66387   -349.58188    25611.853   0.63308659 
  408000       408000    1905.7962    2663.0617     1703.461    959.60073    243.07778    -2027.362    25611.853   0.63308659 
  409000       409000    3058.0662     2785.716    1782.8974    1002.8185    254.41308    729.14001    25611.853   0.63308659 
  410000       410000    2785.6131    2715.5344    1751.4928    964.04154    249.93175    187.61575    25611.853   0.63308659 
  411000       411000    2616.7227    2721.6785    1733.3581    988.32041    247.34399   -280.98913    25611.853   0.63308659 
  412000       412000    2360.4477     2693.372    1716.5047    976.86728    244.93907   -891.30944    25611.853   0.63308659 
  413000       413000      2648.53    2795.2171    1782.2328    1012.9843    254.31823   -392.71271    25611.853   0.63308659 
  414000       414000    2209.8825    2677.6063    1716.0278    961.57857    244.87101   -1252.1969    25611.853   0.63308659 
  415000       415000    2972.0924     2776.949    1790.0081    986.94096    255.42774    522.44071    25611.853   0.63308659 
  416000       416000    2209.6369    2727.1607    1746.3329    980.82778    249.19545   -1385.5219    25611.853   0.63308659 
  417000       417000    2369.3984     2736.693    1765.9071    970.78594    251.98862   -983.32629    25611.853   0.63308659 
  418000       418000     3015.556    2651.1296    1698.7056    952.42397     242.3992     975.6477    25611.853   0.63308659 
  419000       419000    2980.5639    2830.9985    1782.5517    1048.4468    254.36374    400.41868    25611.853   0.63308659 
  420000       420000    3042.7503    2704.6142    1726.9157    977.69857    246.42468    905.26267    25611.853   0.63308659 
  421000       421000    3017.1305    2791.0801    1770.6296    1020.4505     252.6625     605.1853    25611.853   0.63308659 
  422000       422000    2826.9245    2775.8183    1757.1715    1018.6468    250.74208    136.82227    25611.853   0.63308659 
  423000       423000    3405.6009    2699.2735    1702.6921    996.58137    242.96807    1890.9898    25611.853   0.63308659 
  424000       424000    3165.9492    2770.4983    1755.7915    1014.7067    250.54516    1058.7069    25611.853   0.63308659 
  425000       425000    2759.2094    2708.4502    1744.4346     964.0156    248.92457    135.89317    25611.853   0.63308659 
  426000       426000     2925.436    2673.7005    1737.7592    935.94126    247.97202    673.94984    25611.853   0.63308659 
  427000       427000    2873.1972    2788.2795     1764.574    1023.7055    251.79839    227.34293    25611.853   0.63308659 
  428000       428000    2703.1295     2658.987    1729.5375    929.44947     246.7988    118.17895    25611.853   0.63308659 
  429000       429000    2874.3554    2782.3308    1782.0932    1000.2375    254.29832    246.36971    25611.853   0.63308659 
  430000       430000    2238.5521    2719.5523    1740.1115    979.44079    248.30768   -1287.7405    25611.853   0.63308659 
  431000       431000    2502.0921    2779.8773    1768.7733    1011.1039    252.39762   -743.69044    25611.853   0.63308659 
  432000       432000    2687.3457    2677.3259    1701.7357    975.59016    242.83159    26.825185    25611.853   0.63308659 
  433000       433000    2890.2536    2753.6645    1745.9104    1007.7541    249.13516    365.67807    25611.853   0.63308659 
  434000       434000    2970.3946    2746.7059    1750.3211    996.38485    249.76455    598.86257    25611.853   0.63308659 
  435000       435000    2143.4443     2706.842    1723.3727    983.46927    245.91911   -1508.3363    25611.853   0.63308659 
  436000       436000    2435.5257    2718.9909    1737.5773    981.41365    247.94606   -758.89722    25611.853   0.63308659 
  437000       437000    2233.1367    2757.2007    1741.8718     1015.329    248.55886   -1403.0316    25611.853   0.63308659 
  438000       438000    2442.4039    2778.9058    1778.3265    1000.5792    253.76082   -900.88762    25611.853   0.63308659 
  439000       439000     2773.699     2750.587    1767.4681    983.11887    252.21137    61.875739    25611.853   0.63308659 
  440000       440000    2757.6549    2735.1297    1732.3871    1002.7426    247.20544    60.304774    25611.853   0.63308659 
  441000       441000    3088.7114    2725.8622    1721.8016    1004.0606    245.69492    971.42512    25611.853   0.63308659 
  442000       442000     2613.005    2789.3009    1789.4658    999.83502    255.35036   -471.98172    25611.853   0.63308659 
  443000       443000    2832.9967    2830.3719    1793.2249     1037.147    255.88676    7.0271615    25611.853   0.63308659 
  444000       444000    2892.5484    2755.6454    1763.4054    992.23999    251.63163    366.51873    25611.853   0.63308659 
  445000       445000    2831.4337    2704.8391    1770.8039    934.03519    252.68737    338.92097    25611.853   0.63308659 
  446000       446000    2827.0327    2717.1915    1746.1735    971.01803     249.1727    294.06832    25611.853   0.63308659 
  447000       447000    2748.8681    2740.5917    1722.0406    1018.5511    245.72902    22.157761    25611.853   0.63308659 
  448000       448000    2991.9994    2654.7812    1711.1701    943.61117    244.17784    902.80533    25611.853   0.63308659 
  449000       449000    2758.3664     2758.705    1758.8725    999.83251     250.9848  -0.90631122    25611.853   0.63308659 
  450000       450000    2904.3752    2689.5699    1736.2093    953.36063    247.75084    575.07986    25611.853   0.63308659 
  451000       451000    2892.6468    2742.2495    1759.2062    983.04331    251.03242    402.64557    25611.853   0.63308659 
  452000       452000    2715.9591     2774.937    1735.5523    1039.3847    247.65709    -157.8964    25611.853   0.63308659 
  453000       453000    2305.8029    2721.1235    1741.7425    979.38101    248.54042   -1111.9023    25611.853   0.63308659 
  454000       454000    2109.0182    2778.2534    1750.9934      1027.26    249.86048   -1791.6859    25611.853   0.63308659 
  455000       455000    2901.4375    2753.3347    1744.5871    1008.7476    248.94633     396.5027    25611.853   0.63308659 
  456000       456000    3253.4107    2755.9768    1781.3933    974.58359    254.19844    1331.7369    25611.853   0.63308659 
  457000       457000    2572.6858    2802.2225    1795.2912    1006.9312    256.18163    -614.5189    25611.853   0.63308659 
  458000       458000    3140.5306    2710.8407    1781.8167    929.02403    254.25885     1150.372    25611.853   0.63308659 
  459000       459000    3077.5274    2782.2001    1746.4467    1035.7535    249.21168    790.65442    25611.853   0.63308659 
  460000       460000      3153.24    2709.9634    1717.2073    992.75613    245.03933    1186.7462    25611.853   0.63308659 
  461000       461000    3284.8449    2739.3759    1767.9509    971.42501    252.28026    1460.3372    25611.853   0.63308659 
  462000       462000    2542.9611    2729.3809    1746.8264    982.55456    249.26586   -499.08582    25611.853   0.63308659 
  463000       463000    2949.1014    2675.4831    1710.4141    965.06905    244.06996    732.53468    25611.853   0.63308659 
  464000       464000    3056.7747    2747.2634     1745.155    1002.1084    249.02736    828.62815    25611.853   0.63308659 
  465000       465000    2635.7712      2726.52    1742.5179    984.00213    248.65106   -242.95413    25611.853   0.63308659 
  466000       466000    2456.9885    2764.1668    1720.8448    1043.3219    245.55839   -822.38189    25611.853   0.63308659 
  467000       467000    2459.6774    2696.2086    1725.2876    970.92102    246.19235   -633.24462    25611.853   0.63308659 
  468000       468000    3064.8109    2801.1004    1766.7745     1034.326    252.11239    706.00932    25611.853   0.63308659 
  469000       469000    2362.4258     2705.375    1744.1846     961.1904     248.8889   -918.14857    25611.853   0.63308659 
  470000       470000    2884.8217    2680.6751    1684.8894    995.78565    240.42768     546.5443    25611.853   0.63308659 
  471000       471000    2992.3283    2771.4413    1800.2132    971.22812    256.88397    591.36189    25611.853   0.63308659 
  472000       472000    2990.5769      2726.02    1741.0141     985.0059    248.43648    708.27539    25611.853   0.63308659 
  473000       473000    2345.0185    2735.6237    1782.8943     952.7294    254.41263   -1045.7338    25611.853   0.63308659 
  474000       474000    2302.2774    2725.7736    1769.4455    956.32808    252.49353     -1133.79    25611.853   0.63308659 
  475000       475000     2369.809    2807.3351    1800.4807    1006.8544    256.92215    -1171.351    25611.853   0.63308659 
  476000       476000    2080.3428    2749.3601    1750.3798    998.98026    249.77293   -1791.1026    25611.853   0.63308659 
  477000       477000    2327.0375    2692.2058    1740.4993    951.70643    248.36302   -977.63351    25611.853   0.63308659 
  478000       478000    2730.2977    2751.0492    1717.0117    1034.0375    245.01141    -55.55628    25611.853   0.63308659 
  479000       479000    3130.1065    2717.5007     1757.388    960.11271    250.77297    1104.6341    25611.853   0.63308659 
  480000       480000    3091.8482    2787.8319     1776.161    1011.6709     253.4518    813.91692    25611.853   0.63308659 
  481000       481000    1543.2974     2782.485    1783.2124    999.27262    254.45803   -3317.5708    25611.853   0.63308659 
  482000       482000    3082.2566    2670.7158    1703.5911    967.12471    243.09635    1101.7828    25611.853   0.63308659 
  483000       483000    3321.4755    2742.9869    1802.2185    940.76842    257.17012    1548.7377    25611.853   0.63308659 
  484000       484000    2785.0249    2750.9899    1774.1522     976.8376    253.16517    91.119076    25611.853   0.63308659 
  485000       485000    2721.4782    2750.7573    1736.8883     1013.869    247.84774   -78.386295    25611.853   0.63308659 
  486000       486000     2381.227    2753.1057    1768.9156    984.19013    252.41792    -995.5989    25611.853   0.63308659 
  487000       487000    3329.9516    2767.9906    1721.3603    1046.6303    245.63195    1504.4897    25611.853   0.63308659 
  488000       488000    3006.9886     2704.576     1725.633    978.94302    246.24164    809.62338    25611.853   0.63308659 
  489000       489000    2440.7999    2798.4523    1778.9608    1019.4915    253.85133   -957.51192    25611.853   0.63308659 
  490000       490000    3241.9707    2714.6477    1732.2766     982.3711    247.18966    1411.7568    25611.853   0.63308659 
  491000       491000    3316.9027    2719.1876    1726.5709    992.61667    246.37548    1600.2112    25611.853   0.63308659 
  492000       492000    2868.2183    2760.6888    1721.1396    1039.5492    245.60045    287.87949    25611.853   0.63308659 
  493000       493000    2170.0111    2816.5871    1745.8076    1070.7795    249.12049   -1731.0222    25611.853   0.63308659 
  494000       494000    2806.3381    2767.1302    1735.2542     1031.876    247.61455    104.96804    25611.853   0.63308659 
  495000       495000    3103.2012    2724.9077    1779.4707      945.437    253.92409    1012.7727    25611.853   0.63308659 
  496000       496000    3285.2905    2773.1929    1810.5053    962.68768    258.35261    1370.9947    25611.853   0.63308659 
  497000       497000    3106.3408    2724.7449    1767.7789    956.96596    252.25572    1021.6138    25611.853   0.63308659 
  498000       498000     2996.174    2805.1167      1758.31    1046.8067    250.90453    511.50122    25611.853   0.63308659 
  499000       499000     2431.731    2708.7135    1739.9335    968.77995    248.28228    -741.5412    25611.853   0.63308659 
  500000       500000    2816.6263    2755.3872    1749.7225    1005.6648    249.67913    163.95015    25611.853   0.63308659 
  501000       501000    2634.1659    2737.2372    1744.3689    992.86833    248.91519   -275.94398    25611.853   0.63308659 
  502000       502000    3118.8496    2755.4277    1784.3446    971.08308    254.61959    972.95831    25611.853   0.63308659 
  503000       503000    3354.9013    2735.6695    1775.2262    960.44326    253.31843    1657.8162    25611.853   0.63308659 
  504000       504000    2368.7774    2779.9053    1764.3622    1015.5431    251.76817   -1100.6775    25611.853   0.63308659 
  505000       505000    2652.5286    2693.2736    1746.2038     947.0699    249.17702   -109.08328    25611.853   0.63308659 
  506000       506000    2550.3084    2698.6316    1710.6681    987.96351    244.10621   -397.09305    25611.853   0.63308659 
  507000       507000    2099.1847     2695.589    1731.7252    963.86381    247.11098   -1596.7018    25611.853   0.63308659 
  508000       508000    2733.0539    2727.2225    1744.6151    982.60738    248.95032    15.612075    25611.853   0.63308659 
  509000       509000    1929.1014    2722.0167    1758.2224    963.79439    250.89203    -2122.804    25611.853   0.63308659 
  510000       510000    3243.0048    2754.9233    1794.3936    960.52965    256.05354    1306.6989    25611.853   0.63308659 
  511000       511000    3120.8578     2723.609    1722.1206    1001.4884    245.74044    1063.5202    25611.853   0.63308659 
  512000       512000    3151.5999    2804.6775    1780.8743    1023.8031    254.12439     928.7855    25611.853   0.63308659 
  513000       513000    2474.8964    2712.8965    1751.1085    961.78799    249.87691   -637.17716    25611.853   0.63308659 
  514000       514000    2885.3299    2814.7504    1793.1179    1021.6325     255.8715    188.95653    25611.853   0.63308659 
  515000       515000    2876.6035     2709.114    1711.9002    997.21378    244.28202    448.40538    25611.853   0.63308659 
  516000       516000    2859.3079    2743.2832     1742.921    1000.3623    248.70858    310.62296    25611.853   0.63308659 
  517000       517000    2369.3564    2651.9766    1706.3422    945.63446    243.48891    -756.6349    25611.853   0.63308659 
  518000       518000    3081.0763    2756.7151    1802.8339    953.88122    257.25794    868.38435    25611.853   0.63308659 
  519000       519000    3199.2759    2797.8581    1817.0126    980.84552    259.28119    1074.6812    25611.853   0.63308659 
  520000       520000    2792.2403    2717.3487    1745.0055    972.34328    249.00603    200.50074    25611.853   0.63308659 
  521000       521000    2878.3431    2719.5929    1731.2799    988.31302    247.04743    425.00838    25611.853   0.63308659 
  522000       522000    2920.0082    2726.3496    1703.0424    1023.3072    243.01804    518.46569    25611.853   0.63308659 
  523000       523000    2606.6993    2780.8255     1780.532    1000.2935    254.07554   -466.17302    25611.853   0.63308659 
  524000       524000    2663.2018     2723.506    1744.4501    979.05597    248.92677   -161.44724    25611.853   0.63308659 
  525000       525000    2488.2473    2805.2223    1775.9873     1029.235    253.42702   -848.60981    25611.853   0.63308659 
  526000       526000     2898.863    2755.0339    1777.7789      977.255    253.68268    385.06123    25611.853   0.63308659 
  527000       527000    2494.3848    2792.4054    1754.1269    1038.2785    250.30763   -797.86507    25611.853   0.63308659 
  528000       528000    2096.2526    2756.5302    1774.7143    981.81589    253.24537   -1767.7044    25611.853   0.63308659 
  529000       529000    3002.0305    2803.4268    1791.1254    1012.3014    255.58717    531.70466    25611.853   0.63308659 
  530000       530000    3458.8167    2721.9513    1746.1954    975.75598    249.17582    1972.7463    25611.853   0.63308659 
  531000       531000    2694.6797    2745.2516    1812.6644    932.58726    258.66071   -135.39192    25611.853   0.63308659 
  532000       532000    2505.6001    2786.9683    1786.5836    1000.3847    254.93908   -753.28304    25611.853   0.63308659 
  533000       533000    2818.9131    2785.0869    1748.7423    1036.3445    249.53927    90.559983    25611.853   0.63308659 
  534000       534000    2696.4831    2761.0721     1732.981    1028.0912    247.29017   -172.91873    25611.853   0.63308659 
  535000       535000    2436.7573     2664.952    1698.8925    966.05958    242.42587   -610.92621    25611.853   0.63308659 
  536000       536000    3002.2433     2743.351    1766.9758    976.37518    252.14112    693.11024    25611.853   0.63308659 
  537000       537000     2687.204    2792.1614    1830.9236    961.23778    261.26624    -280.9933    25611.853   0.63308659 
  538000       538000     2488.263    2719.3158    1746.1938    973.12203     249.1756   -618.57781    25611.853   0.63308659 
  539000       539000    2415.8189    2681.9817    1685.4213    996.56031    240.50359   -712.57473    25611.853   0.63308659 
  540000       540000      2837.18     2762.054    1738.2167    1023.8373    248.03729    201.12841    25611.853   0.63308659 
  541000       541000    3036.6999    2748.0559    1767.8306    980.22526     252.2631    772.76178    25611.853   0.63308659 
  542000       542000    2734.8412    2748.2586    1718.2499    1030.0087     245.1881   -35.921327    25611.853   0.63308659 
  543000       543000    2837.5319    2780.1799    1790.8827     989.2972    255.55254    153.54373    25611.853   0.63308659 
  544000       544000    2628.1555    2745.5109    1751.4728    994.03808    249.92889    -314.1855    25611.853   0.63308659 
  545000       545000    2614.9699    2764.2202    1763.4624    1000.7578    251.63976   -399.57495    25611.853   0.63308659 
  546000       546000    2626.6664    2741.1564    1764.6671    976.48937    251.81167   -306.51442    25611.853   0.63308659 
  547000       547000    2406.5441    2741.5298    1754.0069    987.52292     250.2905   -896.82855    25611.853   0.63308659 
  548000       548000    2826.5652    2743.0526    1740.1491    1002.9035    248.31304    223.58131    25611.853   0.63308659 
  549000       549000    2842.6956    2726.5802    1755.6504    970.92975    250.52502    310.86586    25611.853   0.63308659 
  550000       550000    2378.7746    2726.9567    1754.6015    972.35526    250.37534   -932.15796    25611.853   0.63308659 
  551000       551000    2684.9097    2725.6573    1783.4074    942.24988    254.48584   -109.08997    25611.853   0.63308659 
  552000       552000     2280.895    2703.2253     1730.682    972.54325    246.96213   -1130.6686    25611.853   0.63308659 
  553000       553000    2819.4164    2758.0035    1765.3329     992.6706    251.90667     164.4156    25611.853   0.63308659 
  554000       554000    3035.4375    2716.1695    1739.7865    976.38292     248.2613    854.74884    25611.853   0.63308659 
  555000       555000     2219.411    2759.4864    1778.1317    981.35475    253.73302   -1445.8977    25611.853   0.63308659 
  556000       556000    2623.9462     2734.774    1744.2673    990.50671     248.9007   -296.70974    25611.853   0.63308659 
  557000       557000    2809.2003    2745.1626    1777.0335    968.12907    253.57631    171.44278    25611.853   0.63308659 
  558000       558000    2815.2093    2708.3992    1742.5037    965.89542    248.64904    285.95361    25611.853   0.63308659 
  559000       559000    2468.5696    2791.8671    1761.6209    1030.2462    251.37699    -865.5367    25611.853   0.63308659 
  560000       560000    2528.6433    2764.7273    1756.8203     1007.907    250.69196   -632.04729    25611.853   0.63308659 
  561000       561000    2456.6806     2705.803    1762.5515    943.25156    251.50978   -666.95406    25611.853   0.63308659 
  562000       562000    2402.5847    2670.1744    1738.5163    931.65813    248.08004   -716.39501    25611.853   0.63308659 
  563000       563000    2870.7227    2740.9221    1750.2141    990.70799    249.74929    347.50393    25611.853   0.63308659 
  564000       564000    2735.8776    2652.2455    1676.7981    975.44739    239.27308    223.90109    25611.853   0.63308659 
  565000       565000    2601.2887    2756.6832    1760.8574    995.82578    251.26804   -416.02437    25611.853   0.63308659 
  566000       566000    2762.8568    2797.7857    1765.9167     1031.869    251.98999   -93.512125    25611.853   0.63308659 
  567000       567000    2637.6273    2761.1536    1782.7304    978.42328    254.38924    -330.7066    25611.853   0.63308659 
  568000       568000    2672.1814    2675.9916    1711.8583    964.13332    244.27605   -10.200771    25611.853   0.63308659 
  569000       569000    2649.7789    2721.7849     1735.764    986.02092     247.6873   -192.77567    25611.853   0.63308659 
  570000       570000    2327.9749    2712.8681    1742.3633    970.50477      248.629   -1030.4415    25611.853   0.63308659 
  571000       571000     3099.873     2760.969    1754.6211    1006.3479    250.37814    907.31863    25611.853   0.63308659 
  572000       572000    2768.2898    2739.0839    1772.8085    966.27545    252.97342    78.190316    25611.853   0.63308659 
  573000       573000    2706.6893    2753.0572    1745.3333    1007.7239    249.05281   -124.13683    25611.853   0.63308659 
  574000       574000    2617.5195     2743.467    1735.2431     1008.224    247.61297   -337.18857    25611.853   0.63308659 
  575000       575000    2719.5491    2743.0689    1732.3634    1010.7055    247.20205   -62.967512    25611.853   0.63308659 
  576000       576000    3002.4654     2732.104    1766.0687    966.03537    252.01167    723.81524    25611.853   0.63308659 
  577000       577000    3158.5156    2756.5629    1757.7237    998.83919    250.82088    1076.1134    25611.853   0.63308659 
  578000       578000    2815.1981    2765.7104    1774.1511    991.55926      253.165    132.48929    25611.853   0.63308659 
  579000       579000    1954.7826    2725.4659    1785.1846    940.28131    254.73945   -2063.2843    25611.853   0.63308659 
  580000       580000    2898.8111    2759.4344    1752.8834     1006.551    250.13018    373.14145    25611.853   0.63308659 
  581000       581000     2362.575    2666.9313    1684.7853    982.14599    240.41282   -814.82691    25611.853   0.63308659 
  582000       582000    2515.7213    2693.4782    1696.2345    997.24378    242.04658   -475.89334    25611.853   0.63308659 
  583000       583000    2096.8553    2774.2669    1795.4852    978.78171    256.20931    -1813.576    25611.853   0.63308659 
  584000       584000    2298.6453    2653.7924    1714.4899    939.30243    244.65157   -950.80487    25611.853   0.63308659 
  585000       585000    2903.6771    2768.6594    1758.0907    1010.5687    250.87325    361.47115    25611.853   0.63308659 
  586000       586000    2225.0465    2796.2714     1799.335    996.93632    256.75866   -1529.2913    25611.853   0.63308659 
  587000       587000    2808.6475    2755.3664    1783.3953    971.97111    254.48412    142.64488    25611.853   0.63308659 
  588000       588000    3121.4247     2646.291    1719.4996     926.7914    245.36643    1272.0347    25611.853   0.63308659 
  589000       589000     2825.408    2774.2369    1781.8447    992.39227    254.26285      136.996    25611.853   0.63308659 
  590000       590000    2839.6522    2798.5954    1798.1841    1000.4113    256.59443    109.91792    25611.853   0.63308659 
  591000       591000    2559.0661    2751.0956     1753.973    997.12263    250.28566   -514.10426    25611.853   0.63308659 
[...]
  857000       857000     2648.217    2750.9723    1762.1888    988.78347    251.45803   -275.09789    25611.853   0.63308659 
  858000       858000    2814.4916    2721.1656    1714.5849    1006.5807    244.66512    249.85361    25611.853   0.63308659 
  859000       859000    2982.9902    2790.4457    1748.1323    1042.3135    249.45221    515.48267    25611.853   0.63308659 
  860000       860000    3044.8798    2770.6825    1791.9341    978.74843    255.70257    734.08476    25611.853   0.63308659 
  861000       861000    2231.7051    2724.3531    1746.7263    977.62682    249.25158    -1318.924    25611.853   0.63308659 
  862000       862000    3088.2044    2736.6246    1752.4248    984.19974    250.06474    941.25438    25611.853   0.63308659 
  863000       863000    2289.6919    2741.3525    1709.8543    1031.4982    243.99008   -1209.1921    25611.853   0.63308659 
  864000       864000    2512.2982    2788.2099    1788.2057    1000.0042    255.17054    -738.6747    25611.853   0.63308659 
  865000       865000    2830.5571    2681.3105    1731.7512    949.55933    247.11469    399.56507    25611.853   0.63308659 
  866000       866000    2423.5211    2691.6264    1740.7943     950.8321    248.40511   -717.77523    25611.853   0.63308659 
  867000       867000    2637.6195    2744.3308    1713.2036    1031.1272    244.46802   -285.68912    25611.853   0.63308659 
  868000       868000    2373.3355    2690.6406    1767.2173    923.42329    252.17558   -849.49386    25611.853   0.63308659 
  869000       869000    2424.6818    2748.6547    1736.4494    1012.2052    247.78511    -867.3447    25611.853   0.63308659 
  870000       870000    2254.0835    2733.8627    1766.4936    967.36906    252.07231   -1284.4715    25611.853   0.63308659 
  871000       871000     2568.596    2792.8114    1786.0679    1006.7435    254.86549   -600.27269    25611.853   0.63308659 
  872000       872000    2614.3944    2773.2539    1760.2024    1013.0516    251.17457   -425.30091    25611.853   0.63308659 
  873000       873000    2752.5579    2765.7197    1764.1921    1001.5276    251.74389   -35.236768    25611.853   0.63308659 
  874000       874000    2875.9019     2712.552    1716.4058    996.14617    244.92496    437.32278    25611.853   0.63308659 
  875000       875000    2821.7219    2699.8804    1729.5455    970.33486    246.79995    326.19584    25611.853   0.63308659 
  876000       876000    2558.9386    2772.8654    1767.5985    1005.2669    252.22997   -572.72808    25611.853   0.63308659 
  877000       877000    2730.3053    2723.5214    1748.3711    975.15031     249.4863     18.16178    25611.853   0.63308659 
  878000       878000    3340.0432    2682.7827     1703.182    979.60073    243.03797    1759.6271    25611.853   0.63308659 
  879000       879000    2723.5394    2759.6426    1742.7819    1016.8606    248.68874   -96.655855    25611.853   0.63308659 
  880000       880000    2475.1156    2705.7774    1759.3695    946.40792    251.05573   -617.53114    25611.853   0.63308659 
  881000       881000     3047.557    2776.3983    1774.5056    1001.8926    253.21559    725.94992    25611.853   0.63308659 
  882000       882000    2412.2605    2709.9865    1722.0975    987.88898    245.73714   -797.07634    25611.853   0.63308659 
  883000       883000    2134.1909    2764.3301    1747.6639    1016.6662    249.38538   -1687.0177    25611.853   0.63308659 
  884000       884000     2323.591    2789.8011    1777.1282    1012.6729    253.58983   -1248.1442    25611.853   0.63308659 
  885000       885000    3042.0271    2720.5343    1768.1682    952.36611    252.31126    860.70512    25611.853   0.63308659 
  886000       886000    3077.1857    2789.0444    1788.4202    1000.6242    255.20115    771.41613    25611.853   0.63308659 
  887000       887000    2734.5019    2782.1762     1738.429    1043.7472    248.06759    -127.6343    25611.853   0.63308659 
  888000       888000    2536.4473    2817.0173    1754.0788    1062.9385    250.30076   -751.14597    25611.853   0.63308659 
  889000       889000    2371.5909    2745.3212    1738.3173    1007.0039    248.05165   -1000.5561    25611.853   0.63308659 
  890000       890000    2557.1811    2657.0228    1698.9834    958.03935    242.43885   -267.29755    25611.853   0.63308659 
  891000       891000    2386.7651    2753.9845    1752.1246      1001.86     250.0219   -983.12507    25611.853   0.63308659 
  892000       892000     2730.903     2764.601    1764.1292    1000.4718    251.73492   -90.216796    25611.853   0.63308659 
  893000       893000    2330.8333    2757.4824    1775.6777    981.80468    253.38284   -1142.2309    25611.853   0.63308659 
  894000       894000    2588.4657    2722.3894    1771.9929    950.39653    252.85704   -358.54255    25611.853   0.63308659 
  895000       895000    2657.8315    2679.7365    1727.6737    952.06281    246.53285   -58.644371    25611.853   0.63308659 
  896000       896000    2689.5379    2757.7045    1720.2838    1037.4207    245.47834    -182.4966    25611.853   0.63308659 
  897000       897000    2656.7889    2703.8648    1766.5709    937.29389    252.08334   -126.03228    25611.853   0.63308659 
  898000       898000    3160.4543    2801.7464    1769.1953    1032.5511    252.45784    960.33769    25611.853   0.63308659 
  899000       899000    2986.9944    2746.1964    1770.7132    975.48314    252.67443    644.66792    25611.853   0.63308659 
  900000       900000    2493.0143    2686.1151    1719.9206     966.1945    245.42651   -516.97216    25611.853   0.63308659 
  901000       901000    2177.3088    2728.7111    1754.5517    974.15939    250.36824    -1476.222    25611.853   0.63308659 
  902000       902000    2891.7907    2776.3529    1773.3783    1002.9746    253.05473    309.05171    25611.853   0.63308659 
  903000       903000    3234.5825    2779.8612    1803.4042    976.45698    257.33932    1217.3863    25611.853   0.63308659 
  904000       904000    2641.1383    2748.3936    1730.5427     1017.851    246.94224   -287.14557    25611.853   0.63308659 
  905000       905000    2452.1124    2779.6899    1776.3496    1003.3403    253.47872     -876.995    25611.853   0.63308659 
  906000       906000    2966.4977    2740.5718    1749.1131     991.4587    249.59218    604.85199    25611.853   0.63308659 
  907000       907000    2693.3309    2694.8393    1706.1268    988.71256    243.45818   -4.0383092    25611.853   0.63308659 
  908000       908000    2591.6037    2798.7557    1806.2529    992.50284    257.74581   -554.59025    25611.853   0.63308659 
  909000       909000    2590.3615    2736.5903    1704.4664    1032.1239    243.22125   -391.48592    25611.853   0.63308659 
  910000       910000    2817.0178    2693.6891    1741.6899    951.99917    248.53292    330.17741    25611.853   0.63308659 
  911000       911000    2322.0904    2766.1043    1745.2611    1020.8432    249.04251   -1188.7204    25611.853   0.63308659 
  912000       912000     2899.119    2692.5248      1728.42    964.10486    246.63934    553.09689    25611.853   0.63308659 
  913000       913000    2843.1226    2732.3006     1724.223    1008.0776    246.04045    296.69432    25611.853   0.63308659 
  914000       914000    2697.1748    2764.7557    1747.0133    1017.7425    249.29254   -180.92866    25611.853   0.63308659 
  915000       915000    2932.7719    2704.9757    1713.0633    991.91232      244.448    609.85928    25611.853   0.63308659 
  916000       916000    2997.1428    2765.1508    1746.3542    1018.7966    249.19849     621.0924    25611.853   0.63308659 
  917000       917000    2895.6263    2761.8465     1754.578    1007.2685    250.37199    358.15732    25611.853   0.63308659 
  918000       918000    2584.2494    2766.4878    1760.0253    1006.4625     251.1493   -487.89112    25611.853   0.63308659 
  919000       919000    2448.9945    2716.4377    1729.4317    987.00598     246.7837   -716.00268    25611.853   0.63308659 
  920000       920000    2823.2994    2764.7088     1758.462    1006.2468    250.92623    156.85965    25611.853   0.63308659 
  921000       921000    2147.1761    2702.8037    1759.9908    942.81295    251.14438   -1487.5342    25611.853   0.63308659 
  922000       922000    2603.7961    2782.4294    1744.0826    1038.3467    248.87434   -478.23949    25611.853   0.63308659 
  923000       923000    3031.5087    2737.1268    1732.7154    1004.4114    247.25227    788.12333    25611.853   0.63308659 
  924000       924000      2921.08    2700.7471    1725.6305    975.11656    246.24129    589.87842    25611.853   0.63308659 
  925000       925000    3170.8764    2738.4688    1750.9333    987.53543    249.85191    1157.6477    25611.853   0.63308659 
  926000       926000    3024.6689    2800.8152    1746.2317    1054.5835      249.181    599.30441    25611.853   0.63308659 
  927000       927000    2667.6218    2729.7702    1734.9182    994.85202    247.56661   -166.38463    25611.853   0.63308659 
  928000       928000    2724.1865    2762.7669    1761.8348    1000.9321    251.40751   -103.28787    25611.853   0.63308659 
  929000       929000    2788.4026    2770.3237    1770.8356     999.4881     252.6919    48.400989    25611.853   0.63308659 
  930000       930000     2377.529      2736.62    1734.8728    1001.7472    247.56014    -961.3636    25611.853   0.63308659 
  931000       931000    2707.0917    2804.9333    1762.8331    1042.1002    251.54997    -261.9428    25611.853   0.63308659 
  932000       932000    2660.8547     2725.404    1733.4585    991.94546    247.35832   -172.81214    25611.853   0.63308659 
  933000       933000    2929.2389    2708.1573     1751.026    957.13126    249.86514    591.88286    25611.853   0.63308659 
  934000       934000    2872.0189    2752.1349    1746.0966    1006.0384    249.16172    320.95498    25611.853   0.63308659 
  935000       935000    2593.5874    2675.9843    1714.9183    961.06599     244.7127   -220.59424    25611.853   0.63308659 
  936000       936000    2366.8507    2758.6112    1775.1217    983.48951     253.3035   -1048.8267    25611.853   0.63308659 
  937000       937000    2483.2006    2769.1041    1748.2924    1020.8117    249.47506   -765.42487    25611.853   0.63308659 
  938000       938000     2485.583    2794.2696    1787.7416    1006.5281    255.10432   -826.42021    25611.853   0.63308659 
  939000       939000    2593.1374    2709.9102    1760.0903    949.81992    251.15858   -312.62589    25611.853   0.63308659 
  940000       940000    2267.9663    2724.0396    1729.0646    994.97497    246.73133   -1221.0058    25611.853   0.63308659 
  941000       941000    2622.1248    2791.1429    1781.4595    1009.6834    254.20789   -452.49757    25611.853   0.63308659 
  942000       942000    2124.0129    2809.0293    1769.9226    1039.1066    252.56162   -1833.9357    25611.853   0.63308659 
  943000       943000    2812.7059     2709.291    1764.4722    944.81879    251.78386    276.86386    25611.853   0.63308659 
  944000       944000    3342.3663    2761.7256    1771.5477    990.17793    252.79351    1554.4994    25611.853   0.63308659 
  945000       945000    2381.0144    2679.7916    1736.0806    943.71095    247.73248   -799.89037    25611.853   0.63308659 
  946000       946000    2862.4117    2762.5318    1723.7974    1038.7344    245.97971    267.39978    25611.853   0.63308659 
  947000       947000    2271.1925    2790.7203    1776.6227    1014.0976     253.5177   -1390.8873    25611.853   0.63308659 
  948000       948000    2681.6456      2762.85    1787.6981    975.15195    255.09811    -217.4017    25611.853   0.63308659 
  949000       949000    3526.1359     2829.318    1775.1853    1054.1327    253.31258    1865.5308    25611.853   0.63308659 
  950000       950000    2624.5171    2723.3623    1752.5178    970.84446    250.07802   -264.62974    25611.853   0.63308659 
  951000       951000     2819.499    2668.1608    1714.8356    953.32514     244.7009    405.16468    25611.853   0.63308659 
  952000       952000    2605.8189    2719.6825    1736.3681    983.31433    247.77351   -304.83705    25611.853   0.63308659 
  953000       953000    3318.2743    2855.6793    1818.5545    1037.1247    259.50122    1238.4658    25611.853   0.63308659 
  954000       954000    2717.3533    2733.5329    1725.6967    1007.8362    246.25074   -43.315995    25611.853   0.63308659 
  955000       955000    3560.5665    2735.7354      1773.83    961.90537    253.11919    2208.2494    25611.853   0.63308659 
  956000       956000    2834.7842    2785.5449      1769.95    1015.5949    252.56553    131.82407    25611.853   0.63308659 
  957000       957000    3074.1461    2745.8337    1723.5614    1022.2723    245.94604    878.96246    25611.853   0.63308659 
  958000       958000    3541.0704    2707.8359    1748.3925    959.44346    249.48934     2230.747    25611.853   0.63308659 
  959000       959000    3009.9771    2729.5626     1745.279    984.28362    249.04506    750.72968    25611.853   0.63308659 
  960000       960000    2361.4435    2754.6338    1778.6931    975.94074    253.81313   -1052.6547    25611.853   0.63308659 
  961000       961000    2682.4378    2670.6996    1755.8836    914.81601     250.5583    31.425608    25611.853   0.63308659 
  962000       962000    2390.2859    2727.6776    1754.7655    972.91207    250.39875   -903.26982    25611.853   0.63308659 
  963000       963000    2122.6321    2672.0721    1691.2421    980.82995    241.33419   -1470.9686    25611.853   0.63308659 
  964000       964000    3019.1371    2726.7305    1731.3501    995.38047    247.05745    782.83503    25611.853   0.63308659 
  965000       965000    2210.5096    2788.2823    1768.5817    1019.7006    252.37027   -1546.8211    25611.853   0.63308659 
  966000       966000    2061.4862    2720.5717    1758.2383    962.33339     250.8943   -1764.5129    25611.853   0.63308659 
  967000       967000    2538.2848    2709.9853    1727.8259    982.15944    246.55457   -459.67906    25611.853   0.63308659 
  968000       968000    2830.6961    2774.8405    1795.1389    979.70151    256.15989    149.53747    25611.853   0.63308659 
  969000       969000    2874.3957    2753.3624    1734.3573    1019.0051    247.48658    324.03205    25611.853   0.63308659 
  970000       970000    2579.3266    2735.5854    1744.4457    991.13969    248.92615   -418.33824    25611.853   0.63308659 
  971000       971000    3295.2347    2762.2468    1749.7997    1012.4471    249.69015    1426.9227    25611.853   0.63308659 
  972000       972000    2897.9268    2795.8796    1800.4714    995.40823    256.92082    273.20224    25611.853   0.63308659 
  973000       973000    1980.7333    2723.9945    1717.2749    1006.7196    245.04897   -1989.8693    25611.853   0.63308659 
  974000       974000    3191.6928    2792.4904    1777.7099    1014.7805    253.67284    1068.7501    25611.853   0.63308659 
  975000       975000    2456.7626    2741.4535    1777.3926    964.06084    253.62756   -762.17843    25611.853   0.63308659 
  976000       976000    2754.7891    2679.0416    1714.5102    964.53147    244.65446    202.79225    25611.853   0.63308659 
  977000       977000    3142.2824    2717.7987    1748.7534    969.04521    249.54085    1136.4339    25611.853   0.63308659 
  978000       978000    3167.5447    2716.9263    1804.1085    912.81774    257.43982    1206.4019    25611.853   0.63308659 
  979000       979000    2664.9201    2767.2039    1803.3717    963.83213    257.33468   -273.83545    25611.853   0.63308659 
  980000       980000     2514.698    2750.2969    1762.1059    988.19104     251.4462   -630.74876    25611.853   0.63308659 
  981000       981000    2320.1061    2779.8414     1759.947    1019.8944    251.13814     -1230.81    25611.853   0.63308659 
  982000       982000    2415.5783    2712.2704    1756.1495    956.12097    250.59624   -794.30844    25611.853   0.63308659 
  983000       983000     3018.515    2691.9928    1679.8864    1012.1064    239.71377    874.16999    25611.853   0.63308659 
  984000       984000    3084.4582    2747.9922    1753.8003    994.19195    250.26102    900.79155    25611.853   0.63308659 
  985000       985000    3555.4001    2729.2796    1718.2079    1011.0717    245.18211    2211.7015    25611.853   0.63308659 
  986000       986000    3263.6571    2678.3171     1723.396    954.92106    245.92244    1567.0804    25611.853   0.63308659 
  987000       987000    2692.5838    2667.9317    1703.2284    964.70331    243.04459    65.999042    25611.853   0.63308659 
  988000       988000    2863.9578    2757.5073    1733.3323     1024.175    247.34031    284.99083    25611.853   0.63308659 
  989000       989000    2765.1236    2743.0301    1756.4617    986.56836    250.64079    59.149215    25611.853   0.63308659 
  990000       990000    2221.0422    2647.5944    1699.9445    947.64997    242.57598   -1141.9717    25611.853   0.63308659 
  991000       991000      3133.13    2764.8178    1759.2394    1005.5783    251.03716    986.05069    25611.853   0.63308659 
  992000       992000    3104.0743    2741.9965    1757.1456    984.85093    250.73838    969.35985    25611.853   0.63308659 
  993000       993000    2827.6959    2777.7767    1759.5704    1018.2062     251.0844    133.64451    25611.853   0.63308659 
  994000       994000    2592.3741    2733.0004    1757.6705    975.32986    250.81329   -376.48663    25611.853   0.63308659 
  995000       995000     2930.189    2740.0788    1792.3924    947.68647    255.76797    508.96558    25611.853   0.63308659 
  996000       996000     2657.471    2715.0496    1711.4235    1003.6261      244.214   -154.15012    25611.853   0.63308659 
  997000       997000    3226.7034    2814.9962    1789.8847    1025.1115    255.41014    1102.2284    25611.853   0.63308659 
  998000       998000    2840.8384    2737.8517    1758.1151     979.7366    250.87673    275.71734    25611.853   0.63308659 
  999000       999000     3216.471    2737.7614    1745.9809    991.78053    249.14522     1281.608    25611.853   0.63308659 
 1000000      1000000    2957.8795    2656.4195    1678.3283    978.09115    239.49144    807.07323    25611.853   0.63308659 
 1000001      1000001    2913.3014    2656.1626    1695.6817    960.48087     241.9677     688.4158    25611.853   0.63308659 
Loop time of 1492.45 on 24 procs for 1000000 steps with 2352 atoms

Performance: 57.891 ns/day, 0.415 hours/ns, 670.038 timesteps/s
92.6% CPU use with 24 MPI tasks x 1 OpenMP threads

MPI task timing breakdown:
Section |  min time  |  avg time  |  max time  |%varavg| %total
---------------------------------------------------------------
Pair    | 710.63     | 726.82     | 738.35     |  32.0 | 48.70
Bond    | 37.45      | 37.825     | 38.316     |   3.6 |  2.53
Kspace  | 228.89     | 256.7      | 296.14     | 129.2 | 17.20
Neigh   | 47.224     | 48.178     | 49.527     |   9.2 |  3.23
Comm    | 326.58     | 347.57     | 359.48     |  49.3 | 23.29
Output  | 0.042317   | 0.043813   | 0.069359   |   2.5 |  0.00
Modify  | 11.282     | 14.823     | 17.991     |  52.5 |  0.99
Other   |            | 60.49      |            |       |  4.05

Nlocal:    98 ave 110 max 82 min
Histogram: 2 2 0 0 2 4 7 4 1 2
Nghost:    5154.17 ave 5238 max 5072 min
Histogram: 2 0 3 5 2 4 5 1 0 2
Neighs:    51640.1 ave 57443 max 42054 min
Histogram: 2 1 0 2 1 2 5 5 5 1

Total # of neighbors = 1239362
Ave neighs/atom = 526.94
Ave special neighs/atom = 9.14286
Neighbor list builds = 30287
Dangerous builds = 0

write_data butane_afterr_nvt1_200K.data
Ewald initialization ...
  using 12-bit tables for long-range coulomb (src/kspace.cpp:332)
  G vector (1/distance) = 0.18796
  estimated absolute RMS force accuracy = 0.00456194
  estimated relative force accuracy = 1.37382e-05
  KSpace vectors: actual max1d max3d = 128 4 364
                  kxmax kymax kzmax  = 4 4 4
Total wall time: 0:24:52
