# LAMMPS data file written by OVITO Basic 3.7.8
84 atoms
3 atom types
0.0 10.0 xlo xhi
0.0 10.0 ylo yhi
0.0 10.0 zlo zhi

Atoms  # atomic

1 1 2.890046 3.005621 7.102684
2 2 3.086945 3.948924 5.919627
3 2 3.34413 5.383683 6.393096
4 1 3.541032 6.326986 5.210038
5 3 2.016319 3.325203 7.709787
6 3 2.706053 1.975807 6.730372
7 3 3.797826 2.994922 7.74294
8 3 2.175971 3.921818 5.282589
9 3 3.949989 3.592925 5.315603
10 3 4.255103 5.41079 7.030134
11 3 2.481085 5.739682 6.997118
12 3 4.41476 6.007403 4.602938
13 3 2.633253 6.337684 4.569781
14 3 3.725024 7.3568 5.582351
15 1 4.833489 5.586977 7.218807
16 2 6.093012 4.80879 6.849699
17 2 5.765309 3.63434 5.92119
18 1 7.024833 2.856155 5.552081
19 3 4.112833 4.926744 7.746872
20 3 5.100755 6.42982 7.8905
21 3 4.353014 5.998988 6.305847
22 3 6.567272 4.429472 7.781161
23 3 6.806443 5.497209 6.346192
24 3 5.291047 4.013657 4.98973
25 3 5.051879 2.94592 6.424698
26 3 7.745486 3.516389 5.024014
27 3 7.505309 2.444144 6.46504
28 3 6.757566 2.013311 4.880389
29 1 7.068675 3.12714 3.210749
30 2 7.04123 4.616915 2.882066
31 2 7.073955 5.465469 4.157895
32 1 7.046512 6.955243 3.829211
33 3 6.185429 2.851256 3.825461
34 3 7.044122 2.538334 2.269638
35 3 7.996496 2.871413 3.7656
36 3 6.116874 4.841136 2.306118
37 3 7.920328 4.861209 2.246509
38 3 7.99831 5.241247 4.733844
39 3 6.194856 5.221176 4.793451
40 3 7.929759 7.231126 3.214502
41 3 6.118693 7.210971 3.27436
42 3 7.071064 7.544049 4.770323
43 1 3.030285 6.97967 3.196503
44 2 3.110272 6.290295 4.555392
45 2 3.13293 7.31493 5.694894
46 1 3.212915 6.625555 7.053783
47 3 3.912606 7.637429 3.044951
48 3 3.015437 6.214607 2.391864
49 3 2.102948 7.587277 3.126029
50 3 4.032549 5.670123 4.590281
51 3 2.230498 5.620182 4.67102
52 3 2.210655 7.935103 5.660004
53 3 4.012706 7.985042 5.579267
54 3 2.330593 5.967798 7.205334
55 3 4.140251 6.017947 7.124257
56 3 3.227764 7.390619 7.858421
57 1 6.739397 2.768001 3.354492
58 2 5.350364 2.984576 3.947703
59 2 4.398403 3.600326 2.916454
60 1 3.009371 3.816898 3.509665
61 3 7.173949 3.736166 3.025969
62 3 7.406092 2.32195 4.122309
63 3 6.684861 2.0767 2.486601
64 3 5.436357 3.658403 4.828038
65 3 4.949325 2.005912 4.290937
66 3 4.312413 2.926501 2.036119
67 3 4.799443 4.57899 2.573222
68 3 2.574819 2.848733 3.838185
69 3 3.063904 4.508198 4.377556
70 3 2.342676 4.262951 2.741848
71 1 7.355592 4.006902 5.310624
72 2 7.035233 5.496909 5.384544
73 2 6.237664 5.829007 6.650422
74 1 5.917306 7.319014 6.724343
75 3 6.418127 3.411291 5.288005
76 3 7.932489 3.796171 4.385546
77 3 7.964975 3.69927 6.187049
78 3 6.447628 5.783455 4.485078
79 3 7.987974 6.070224 5.380344
80 3 6.825267 5.542459 7.549887
81 3 5.284921 5.255693 6.654621
82 3 6.854772 7.914624 6.746963
83 3 5.307925 7.626648 5.847918
84 3 5.340409 7.529745 7.64942
