butane168_dpmd_run.data - created by mBuild; units = real

2352 atoms
2184 bonds
4032 angles
4536 dihedrals
0 impropers

3 atom types
4 bond types
6 angle types
6 dihedral types

0.000000 30.190380 xlo xhi
0.000000 30.190380 ylo yhi
0.000000 30.190380 zlo zhi

Masses

1	12.010780	# opls_135
2	12.010780	# opls_136
3	1.007947	# opls_140

Pair Coeffs # lj
#	epsilon (kcal/mol)		sigma (Angstrom)
1	0.06600		3.50000		# opls_135
2	0.06600		3.50000		# opls_136
3	0.03000		2.50000		# opls_140

Bond Coeffs # harmonic
#	k(kcal/mol/angstrom^2)		req(angstrom)
1	268.0		1.529		# opls_135	opls_136
2	268.0		1.529		# opls_136	opls_136
3	340.0		1.09		# opls_135	opls_140
4	340.0		1.09		# opls_136	opls_140

Angle Coeffs # harmonic
#	k(kcal/mol/rad^2)		theteq(deg)
1	58.35		112.70000	# opls_135	opls_136	opls_136
2	37.5		110.70000	# opls_135	opls_136	opls_140
3	37.5		110.70000	# opls_136	opls_135	opls_140
4	37.5		110.70000	# opls_136	opls_136	opls_140
5	33.0		107.80000	# opls_140	opls_135	opls_140
6	33.0		107.80000	# opls_140	opls_136	opls_140

Dihedral Coeffs # opls
#	f1(kcal/mol)	f2(kcal/mol)	f3(kcal/mol)	f4(kcal/mol)
1	1.30000	-0.05000		0.20000		-0.00000	# opls_135	opls_136	opls_136	opls_135
2	-0.00000	-0.00000		0.30000		-0.00000	# opls_135	opls_136	opls_136	opls_140
3	-0.00000	-0.00000		0.30000		-0.00000	# opls_136	opls_136	opls_135	opls_140
4	-0.00000	-0.00000		0.30000		-0.00000	# opls_140	opls_135	opls_136	opls_140
5	-0.00000	-0.00000		0.30000		-0.00000	# opls_140	opls_136	opls_136	opls_140
6	-0.00000	-0.00000		0.30000		-0.00000	# opls_140	opls_136	opls_135	opls_140

Atoms # full

1	1	1	-0.180000	24.907631	20.769761	9.944999
2	1	2	-0.120000	26.307708	20.597409	9.363370
3	1	2	-0.120000	26.246946	20.165471	7.894156
4	1	1	-0.180000	27.647023	19.993122	7.312526
5	1	3	0.060000	24.348366	19.811197	9.895151
6	1	3	0.060000	24.982538	21.082214	11.007895
7	1	3	0.060000	24.350023	21.549768	9.383956
8	1	3	0.060000	26.852055	19.831078	9.957380
9	1	3	0.060000	26.853705	21.562341	9.448334
10	1	3	0.060000	25.702598	20.931801	7.300145
11	1	3	0.060000	25.700950	19.200539	7.809192
12	1	3	0.060000	28.206286	20.951687	7.362373
13	1	3	0.060000	28.204632	19.213116	7.873568
14	1	3	0.060000	27.572116	19.680668	6.249630
15	2	1	-0.180000	22.579022	21.275067	12.841421
16	2	2	-0.120000	22.492758	19.780434	13.136112
17	2	2	-0.120000	23.871699	19.117992	13.043665
18	2	1	-0.180000	23.785436	17.623359	13.338359
19	2	3	0.060000	22.969467	21.444152	11.815230
20	2	3	0.060000	21.567696	21.727525	12.915500
21	2	3	0.060000	23.246484	21.775178	13.575239
22	2	3	0.060000	21.800440	19.309064	12.404722
23	2	3	0.060000	22.076294	19.638698	14.157333
24	2	3	0.060000	24.564018	19.589362	13.775054
25	2	3	0.060000	24.288163	19.259726	12.022443
26	2	3	0.060000	23.394992	17.454276	14.364551
27	2	3	0.060000	23.117972	17.123247	12.604542
28	2	3	0.060000	24.796762	17.170901	13.264279
29	3	1	-0.180000	16.984233	2.930664	6.603661
30	3	2	-0.120000	17.034512	3.803823	5.353349
31	3	2	-0.120000	17.373731	2.972375	4.111384
32	3	1	-0.180000	17.424008	3.845533	2.861072
33	3	3	0.060000	17.969386	2.447282	6.776637
34	3	3	0.060000	16.737001	3.558300	7.485667
35	3	3	0.060000	16.204518	2.146754	6.495790
36	3	3	0.060000	17.803524	4.593980	5.497222
37	3	3	0.060000	16.046074	4.294715	5.217555
38	3	3	0.060000	16.604721	2.182216	3.967512
39	3	3	0.060000	18.362170	2.481484	4.247177
40	3	3	0.060000	16.438854	4.328913	2.688096
41	3	3	0.060000	18.203721	4.629444	2.968942
42	3	3	0.060000	17.671240	3.217897	1.979066
43	4	1	-0.180000	3.298041	26.464306	26.855446
44	4	2	-0.120000	4.793304	26.191005	26.988526
45	4	2	-0.120000	5.572216	27.486847	27.239410
46	4	1	-0.180000	7.067478	27.213547	27.372492
47	4	3	0.060000	3.105219	27.147847	26.001223
48	4	3	0.060000	2.760335	25.509747	26.674678
49	4	3	0.060000	2.904955	26.922269	27.788108
50	4	3	0.060000	5.155694	25.710644	26.053458
51	4	3	0.060000	4.956271	25.486015	27.832833
52	4	3	0.060000	5.209825	27.967211	28.174476
53	4	3	0.060000	5.409250	28.191838	26.395102
54	4	3	0.060000	7.260298	26.530008	28.226716
55	4	3	0.060000	7.460565	26.755583	26.439831
56	4	3	0.060000	7.605184	28.168106	27.553259
57	5	1	-0.180000	5.231213	13.392382	15.170570
58	5	2	-0.120000	4.417743	14.542139	14.583595
59	5	2	-0.120000	3.456106	15.126852	15.623892
60	5	1	-0.180000	2.642638	16.276610	15.036918
61	5	3	0.060000	4.557641	12.575918	15.507901
62	5	3	0.060000	5.917499	12.989330	14.396265
63	5	3	0.060000	5.836671	13.748097	16.031379
64	5	3	0.060000	3.841713	14.165879	13.710071
65	5	3	0.060000	5.115366	15.333132	14.231349
66	5	3	0.060000	4.032135	15.503110	16.497416
67	5	3	0.060000	2.758482	14.335859	15.976136
68	5	3	0.060000	3.316210	17.093074	14.699588
69	5	3	0.060000	2.037180	15.920897	14.176107
70	5	3	0.060000	1.956351	16.679661	15.811222
71	6	1	-0.180000	22.911023	2.648022	26.141364
72	6	2	-0.120000	23.795728	3.328463	27.181802
73	6	2	-0.120000	24.883277	4.176634	26.513451
74	6	1	-0.180000	25.767981	4.857077	27.553889
75	6	3	0.060000	23.518628	1.976499	25.497952
76	6	3	0.060000	22.134111	2.041906	26.653240
77	6	3	0.060000	22.407491	3.408020	25.506568
78	6	3	0.060000	24.267048	2.548270	27.818657
79	6	3	0.060000	23.160581	3.973774	27.827237
80	6	3	0.060000	24.411959	4.956825	25.876594
81	6	3	0.060000	25.518426	3.531323	25.868017
82	6	3	0.060000	25.160374	5.528600	28.197299
83	6	3	0.060000	26.271513	4.097081	28.188686
84	6	3	0.060000	26.544893	5.463192	27.042012
85	7	1	-0.180000	14.364665	13.905929	19.762151
86	7	2	-0.120000	15.698541	13.373095	20.277009
87	7	2	-0.120000	16.290804	12.339852	19.312393
88	7	1	-0.180000	17.624680	11.807020	19.827250
89	7	3	0.060000	13.631892	13.077319	19.659417
90	7	3	0.060000	13.960087	14.650733	20.479487
91	7	3	0.060000	14.500992	14.399814	18.776454
92	7	3	0.060000	15.538991	12.907205	21.273963
93	7	3	0.060000	16.404438	14.224141	20.394711
94	7	3	0.060000	16.450352	12.805741	18.315439
95	7	3	0.060000	15.584907	11.488805	19.194692
96	7	3	0.060000	18.357453	12.635631	19.929982
97	7	3	0.060000	17.488355	11.313136	20.812947
98	7	3	0.060000	18.029258	11.062215	19.109914
99	8	1	-0.180000	12.164105	19.429861	9.035367
100	8	2	-0.120000	12.977686	20.008156	10.189437
101	8	2	-0.120000	13.499237	18.898559	11.109019
102	8	1	-0.180000	14.312819	19.476853	12.263087
103	8	3	0.060000	11.286906	18.869954	9.424124
104	8	3	0.060000	11.799985	20.254707	8.387269
105	8	3	0.060000	12.792810	18.748437	8.423405
106	8	3	0.060000	12.333807	20.704551	10.769850
107	8	3	0.060000	13.833381	20.583543	9.773338
108	8	3	0.060000	14.143114	18.202162	10.528606
109	8	3	0.060000	12.643541	18.323172	11.525119
110	8	3	0.060000	15.190019	20.036758	11.874329
111	8	3	0.060000	13.684117	20.158279	12.875049
112	8	3	0.060000	14.676939	18.652007	12.911186
113	9	1	-0.180000	21.384423	17.040746	20.875310
114	9	2	-0.120000	20.946326	15.645819	20.438889
115	9	2	-0.120000	22.154965	14.727734	20.226364
116	9	1	-0.180000	21.716868	13.332806	19.789945
117	9	3	0.060000	22.030270	17.503022	20.098595
118	9	3	0.060000	20.490120	17.682514	21.021404
119	9	3	0.060000	21.943676	16.987371	21.833690
120	9	3	0.060000	20.368329	15.730009	19.492709
121	9	3	0.060000	20.282099	15.216525	21.220511
122	9	3	0.060000	22.732963	14.643545	21.172543
123	9	3	0.060000	22.819191	15.157027	19.444740
124	9	3	0.060000	21.071022	12.870531	20.566662
125	9	3	0.060000	21.157613	13.386180	18.831566
126	9	3	0.060000	22.611171	12.691039	19.643851
127	10	1	-0.180000	24.116874	8.753276	18.561654
128	10	2	-0.120000	22.698428	9.289857	18.729902
129	10	2	-0.120000	21.689313	8.146709	18.884010
130	10	1	-0.180000	20.270868	8.683290	19.052260
131	10	3	0.060000	24.183341	8.116252	17.653972
132	10	3	0.060000	24.824769	9.601777	18.452496
133	10	3	0.060000	24.411862	8.156812	19.451216
134	10	3	0.060000	22.437799	9.902703	17.839443
135	10	3	0.060000	22.665360	9.943093	19.629132
136	10	3	0.060000	21.949942	7.533861	19.774468
137	10	3	0.060000	21.722380	7.493474	17.984780
138	10	3	0.060000	20.204402	9.320312	19.959944
139	10	3	0.060000	19.975878	9.279755	18.162701
140	10	3	0.060000	19.562972	7.834788	19.161418
141	11	1	-0.180000	27.111029	22.373970	19.030796
142	11	2	-0.120000	27.250048	23.460443	17.968503
143	11	2	-0.120000	27.117079	24.857174	18.585200
144	11	1	-0.180000	27.256100	25.943646	17.522907
145	11	3	0.060000	26.115135	22.436801	19.519009
146	11	3	0.060000	27.211389	21.375107	18.556257
147	11	3	0.060000	27.904729	22.482932	19.800388
148	11	3	0.060000	26.461215	23.313719	17.198671
149	11	3	0.060000	28.243287	23.359657	17.478868
150	11	3	0.060000	27.905910	25.003897	19.355033
151	11	3	0.060000	26.123839	24.957960	19.074833
152	11	3	0.060000	28.251996	25.880816	17.034696
153	11	3	0.060000	26.462402	25.834685	16.753313
154	11	3	0.060000	27.155739	26.942510	17.997446
155	12	1	-0.180000	18.380062	13.806724	5.412015
156	12	2	-0.120000	19.420868	13.869101	4.297992
157	12	2	-0.120000	20.329416	15.092967	4.457820
158	12	1	-0.180000	21.370223	15.155343	3.343798
159	12	3	0.060000	17.737317	14.712557	5.390778
160	12	3	0.060000	17.737579	12.912151	5.270803
161	12	3	0.060000	18.878484	13.733328	6.402113
162	12	3	0.060000	18.896775	13.916431	3.318445
163	12	3	0.060000	20.033146	12.941318	4.325529
164	12	3	0.060000	20.853507	15.045639	5.437367
165	12	3	0.060000	19.717138	16.020751	4.430281
166	12	3	0.060000	22.012968	14.249510	3.365037
167	12	3	0.060000	20.871802	15.228738	2.353699
168	12	3	0.060000	22.012705	16.049917	3.485010
169	13	1	-0.180000	5.622932	19.064245	23.335378
170	13	2	-0.120000	4.520613	18.838806	22.304706
171	13	2	-0.120000	4.490595	19.969613	21.270672
172	13	1	-0.180000	3.388278	19.744173	20.239998
173	13	3	0.060000	5.453545	20.018005	23.879212
174	13	3	0.060000	5.620951	18.231541	24.069943
175	13	3	0.060000	6.615665	19.096604	22.837845
176	13	3	0.060000	3.542252	18.785244	22.830411
177	13	3	0.060000	4.699487	17.867717	21.793420
178	13	3	0.060000	5.468957	20.023177	20.744968
179	13	3	0.060000	4.311719	20.940703	21.781958
180	13	3	0.060000	3.557668	18.790414	19.696164
181	13	3	0.060000	2.395544	19.711813	20.737531
182	13	3	0.060000	3.390259	20.576878	19.505434
183	14	1	-0.180000	2.985502	8.417601	10.532732
184	14	2	-0.120000	3.168884	9.384698	11.698627
185	14	2	-0.120000	3.305119	10.828632	11.203303
186	14	1	-0.180000	3.488499	11.795729	12.369197
187	14	3	0.060000	3.862640	8.462497	9.852498
188	14	3	0.060000	2.889758	7.381588	10.920671
189	14	3	0.060000	2.065783	8.669950	9.963045
190	14	3	0.060000	4.080337	9.095254	12.265992
191	14	3	0.060000	2.291033	9.301836	12.376074
192	14	3	0.060000	2.393668	11.118076	10.635936
193	14	3	0.060000	4.182971	10.911495	10.525857
194	14	3	0.060000	2.611359	11.750833	13.049429
195	14	3	0.060000	4.408216	11.543381	12.938886
196	14	3	0.060000	3.584244	12.831742	11.981258
197	15	1	-0.180000	2.734604	5.548921	12.822012
198	15	2	-0.120000	2.970299	4.614939	11.638652
199	15	2	-0.120000	4.067250	3.591463	11.951779
200	15	1	-0.180000	4.302943	2.657480	10.768420
201	15	3	0.060000	3.663437	6.108773	13.062717
202	15	3	0.060000	1.936706	6.277858	12.567071
203	15	3	0.060000	2.414075	4.968848	13.713575
204	15	3	0.060000	3.264831	5.221778	10.754671
205	15	3	0.060000	2.020721	4.086644	11.402793
206	15	3	0.060000	3.772719	2.984626	12.835762
207	15	3	0.060000	5.016829	4.119758	12.187637
208	15	3	0.060000	3.374110	2.097627	10.527718
209	15	3	0.060000	4.623470	3.237551	9.876857
210	15	3	0.060000	5.100843	1.928544	11.023361
211	16	1	-0.180000	11.865055	24.045462	6.609162
212	16	2	-0.120000	12.072015	22.568231	6.930365
213	16	2	-0.120000	12.860112	21.865792	5.819360
214	16	1	-0.180000	13.067074	20.388562	6.140564
215	16	3	0.060000	11.293560	24.158309	5.663242
216	16	3	0.060000	11.292626	24.527578	7.429452
217	16	3	0.060000	12.844744	24.559702	6.509802
218	16	3	0.060000	11.078407	22.083464	7.049407
219	16	3	0.060000	12.623071	22.483170	7.892408
220	16	3	0.060000	13.853719	22.350559	5.700317
221	16	3	0.060000	12.309055	21.950852	4.857318
222	16	3	0.060000	13.638571	20.275716	7.086483
223	16	3	0.060000	12.087386	19.874320	6.239927
224	16	3	0.060000	13.639502	19.906445	5.320274
225	17	1	-0.180000	16.166599	17.309864	19.695368
226	17	2	-0.120000	17.188962	17.044219	18.594268
227	17	2	-0.120000	16.707190	15.940013	17.646915
228	17	1	-0.180000	17.729552	15.674369	16.545814
229	17	3	0.060000	16.002096	16.391802	20.298863
230	17	3	0.060000	16.541498	18.112423	20.364948
231	17	3	0.060000	15.200944	17.637361	19.254502
232	17	3	0.060000	18.151598	16.743158	19.062371
233	17	3	0.060000	17.353814	17.983481	18.022399
234	17	3	0.060000	15.744553	16.241072	17.178814
235	17	3	0.060000	16.542339	15.000750	18.218785
236	17	3	0.060000	17.894052	16.592432	15.942319
237	17	3	0.060000	18.695207	15.346874	16.986679
238	17	3	0.060000	17.354653	14.871810	15.876235
239	18	1	-0.180000	26.475743	12.918574	21.548668
240	18	2	-0.120000	25.309602	13.695953	22.152003
241	18	2	-0.120000	25.398301	13.727367	23.681708
242	18	1	-0.180000	24.232162	14.504747	24.285044
243	18	3	0.060000	26.468397	11.868590	21.911415
244	18	3	0.060000	26.385468	12.912471	20.441961
245	18	3	0.060000	27.440740	13.395287	21.823681
246	18	3	0.060000	24.356970	13.213839	21.841385
247	18	3	0.060000	25.325225	14.734119	21.754021
248	18	3	0.060000	26.350934	14.209478	23.992327
249	18	3	0.060000	25.382677	12.689200	24.079691
250	18	3	0.060000	24.239510	15.554731	23.922297
251	18	3	0.060000	23.267165	14.028036	24.010030
252	18	3	0.060000	24.322436	14.510850	25.391751
253	19	1	-0.180000	8.496524	6.753890	24.161385
254	19	2	-0.120000	7.852472	6.818749	25.543125
255	19	2	-0.120000	8.290228	8.078176	26.298813
256	19	1	-0.180000	7.646175	8.143036	27.680552
257	19	3	0.060000	9.603401	6.728448	24.252375
258	19	3	0.060000	8.162069	5.833337	23.638213
259	19	3	0.060000	8.198164	7.635447	23.554798
260	19	3	0.060000	8.146156	5.914385	26.119582
261	19	3	0.060000	6.746826	6.817572	25.424938
262	19	3	0.060000	7.996546	8.982540	25.722355
263	19	3	0.060000	9.395875	8.079352	26.417001
264	19	3	0.060000	6.539297	8.168480	27.589560
265	19	3	0.060000	7.944532	7.261480	28.287139
266	19	3	0.060000	7.980630	9.063589	28.203724
267	20	1	-0.180000	14.986815	5.641162	25.647757
268	20	2	-0.120000	13.886162	6.686939	25.799839
269	20	2	-0.120000	13.876363	7.656231	24.612729
270	20	1	-0.180000	12.775710	8.702007	24.764809
271	20	3	0.060000	15.982134	6.132393	25.601540
272	20	3	0.060000	14.970069	4.954320	26.520084
273	20	3	0.060000	14.828105	5.045484	24.723590
274	20	3	0.060000	14.053973	7.251052	26.743259
275	20	3	0.060000	12.904795	6.168712	25.868998
276	20	3	0.060000	13.708555	7.092118	23.669309
277	20	3	0.060000	14.857731	8.174459	24.543570
278	20	3	0.060000	11.780391	8.210774	24.811025
279	20	3	0.060000	12.934417	9.297684	25.688977
280	20	3	0.060000	12.792456	9.388849	23.892482
281	21	1	-0.180000	5.744573	11.292373	27.484872
282	21	2	-0.120000	6.286870	11.233024	26.059878
283	21	2	-0.120000	5.617117	10.110656	25.259520
284	21	1	-0.180000	6.159412	10.051308	23.834526
285	21	3	0.060000	5.940614	10.334662	28.012567
286	21	3	0.060000	6.246651	12.112710	28.039805
287	21	3	0.060000	4.651145	11.488328	27.473796
288	21	3	0.060000	7.384788	11.061533	26.099782
289	21	3	0.060000	6.100738	12.210349	25.563276
290	21	3	0.060000	4.519198	10.282145	25.219617
291	21	3	0.060000	5.803250	9.133330	25.756121
292	21	3	0.060000	5.963368	11.009019	23.306831
293	21	3	0.060000	7.252840	9.855355	23.845600
294	21	3	0.060000	5.657334	9.230970	23.279593
295	22	1	-0.180000	24.635689	14.936301	2.768914
296	22	2	-0.120000	25.087092	13.719542	3.571378
297	22	2	-0.120000	25.530314	12.580543	2.646667
298	22	1	-0.180000	25.981719	11.363785	3.449130
299	22	3	0.060000	23.774896	14.671839	2.118376
300	22	3	0.060000	24.321039	15.743660	3.463287
301	22	3	0.060000	25.469262	15.314208	2.139272
302	22	3	0.060000	24.243968	13.377266	4.210451
303	22	3	0.060000	25.931212	14.016934	4.231259
304	22	3	0.060000	26.373436	12.922820	2.007592
305	22	3	0.060000	24.686193	12.283150	1.986787
306	22	3	0.060000	26.842513	11.628248	4.099666
307	22	3	0.060000	25.148148	10.985878	4.078774
308	22	3	0.060000	26.296368	10.556426	2.754758
309	23	1	-0.180000	15.757704	24.429902	17.524470
310	23	2	-0.120000	15.083155	25.591811	18.247773
311	23	2	-0.120000	15.310762	25.508218	19.761067
312	23	1	-0.180000	14.636215	26.670128	20.484370
313	23	3	0.060000	15.342457	23.462043	17.877915
314	23	3	0.060000	15.576424	24.516346	16.432384
315	23	3	0.060000	16.853702	24.447028	17.705024
316	23	3	0.060000	13.992936	25.566380	18.030512
317	23	3	0.060000	15.497830	26.547225	17.858348
318	23	3	0.060000	16.400981	25.533647	19.978329
319	23	3	0.060000	14.896086	24.552804	20.150493
320	23	3	0.060000	15.051465	27.637986	20.130925
321	23	3	0.060000	13.540217	26.653004	20.303815
322	23	3	0.060000	14.817494	26.583683	21.576456
323	24	1	-0.180000	25.242625	6.415317	10.107383
324	24	2	-0.120000	24.039313	5.624875	9.601957
325	24	2	-0.120000	23.624159	4.545890	10.608084
326	24	1	-0.180000	22.420846	3.755449	10.102658
327	24	3	0.060000	26.111478	5.740070	10.259836
328	24	3	0.060000	25.520388	7.188007	9.359866
329	24	3	0.060000	24.997524	6.920398	11.065989
330	24	3	0.060000	24.302396	5.151017	8.631044
331	24	3	0.060000	23.193125	6.326384	9.433809
332	24	3	0.060000	23.361078	5.019747	11.578997
333	24	3	0.060000	24.470347	3.844380	10.776231
334	24	3	0.060000	21.551993	4.430697	9.950208
335	24	3	0.060000	22.665945	3.250369	9.144052
336	24	3	0.060000	22.143083	2.982758	10.850176
337	25	1	-0.180000	13.047142	6.874685	20.535521
338	25	2	-0.120000	14.010930	5.894664	21.198006
339	25	2	-0.120000	14.774477	5.076570	20.150834
340	25	1	-0.180000	15.738266	4.096550	20.813319
341	25	3	0.060000	12.300821	6.326624	19.921729
342	25	3	0.060000	12.509133	7.452272	21.316498
343	25	3	0.060000	13.603885	7.585537	19.888347
344	25	3	0.060000	13.432418	5.212174	21.858276
345	25	3	0.060000	14.730005	6.465795	21.825034
346	25	3	0.060000	15.352987	5.759059	19.490562
347	25	3	0.060000	14.055401	4.505438	19.523806
348	25	3	0.060000	16.484587	4.644613	21.427108
349	25	3	0.060000	15.181524	3.385699	21.460494
350	25	3	0.060000	16.276274	3.518963	20.032340
351	26	1	-0.180000	27.592566	20.314825	22.019129
352	26	2	-0.120000	26.162907	20.846874	22.053974
353	26	2	-0.120000	26.138196	22.345749	22.372743
354	26	1	-0.180000	24.708537	22.877799	22.407586
355	26	3	0.060000	28.082838	20.460959	23.005223
356	26	3	0.060000	27.579586	19.229137	21.786532
357	26	3	0.060000	28.180364	20.838918	21.235594
358	26	3	0.060000	25.590515	20.289477	22.827344
359	26	3	0.060000	25.687630	20.665848	21.065153
360	26	3	0.060000	26.710590	22.903146	21.599375
361	26	3	0.060000	26.613471	22.526775	23.361565
362	26	3	0.060000	24.218267	22.731665	21.421490
363	26	3	0.060000	24.120738	22.353705	23.191119
364	26	3	0.060000	24.721517	23.963486	22.640184
365	27	1	-0.180000	8.261205	19.586812	4.703634
366	27	2	-0.120000	9.148471	19.481897	3.466716
367	27	2	-0.120000	10.629029	19.397640	3.853627
368	27	1	-0.180000	11.516295	19.292724	2.616709
369	27	3	0.060000	8.513756	20.500184	5.283353
370	27	3	0.060000	7.196647	19.646213	4.393515
371	27	3	0.060000	8.393430	18.693256	5.350302
372	27	3	0.060000	8.978585	20.374346	2.825545
373	27	3	0.060000	8.858765	18.575012	2.892212
374	27	3	0.060000	10.798915	18.505194	4.494800
375	27	3	0.060000	10.918736	20.304526	4.428129
376	27	3	0.060000	11.263743	18.379350	2.036992
377	27	3	0.060000	11.384070	20.186278	1.970039
378	27	3	0.060000	12.580854	19.233324	2.926828
379	28	1	-0.180000	25.459044	19.997930	2.829897
380	28	2	-0.120000	25.187378	20.299082	4.300855
381	28	2	-0.120000	23.684382	20.283383	4.600202
382	28	1	-0.180000	23.412716	20.584533	6.071161
383	28	3	0.060000	24.975608	20.761593	2.183976
384	28	3	0.060000	26.553406	20.015968	2.642727
385	28	3	0.060000	25.069703	18.992139	2.563618
386	28	3	0.060000	25.608410	21.298352	4.547062
387	28	3	0.060000	25.702109	19.536335	4.925109
388	28	3	0.060000	23.263349	19.284115	4.353994
389	28	3	0.060000	23.169650	21.046132	3.975950
390	28	3	0.060000	23.896151	19.820868	6.717080
391	28	3	0.060000	23.802058	21.590323	6.337442
392	28	3	0.060000	22.318354	20.566496	6.258330
393	29	1	-0.180000	16.734886	2.902677	23.946529
394	29	2	-0.120000	17.514620	3.777877	24.923390
395	29	2	-0.120000	18.721233	3.026918	25.496975
396	29	1	-0.180000	19.500968	3.902118	26.473834
397	29	3	0.060000	16.356639	1.993309	24.460420
398	29	3	0.060000	15.868532	3.471435	23.547867
399	29	3	0.060000	17.383304	2.601083	23.096411
400	29	3	0.060000	16.837291	4.086069	25.749627
401	29	3	0.060000	17.859640	4.691288	24.391351
402	29	3	0.060000	19.398561	2.718724	24.670738
403	29	3	0.060000	18.376212	2.113508	26.029015
404	29	3	0.060000	19.879216	4.811485	25.959941
405	29	3	0.060000	18.852551	4.203715	27.323952
406	29	3	0.060000	20.367322	3.333360	26.872497
407	30	1	-0.180000	2.499360	27.252299	16.149054
408	30	2	-0.120000	3.993187	27.289094	16.457830
409	30	2	-0.120000	4.245199	27.308108	17.969445
410	30	1	-0.180000	5.739025	27.344901	18.278221
411	30	3	0.060000	1.996805	28.150847	16.566372
412	30	3	0.060000	2.347339	27.239180	15.049189
413	30	3	0.060000	2.038142	26.339221	16.582268
414	30	3	0.060000	4.434290	28.197622	15.992609
415	30	3	0.060000	4.475454	26.393611	16.008438
416	30	3	0.060000	3.804094	26.399581	18.434666
417	30	3	0.060000	3.762933	28.203592	18.418836
418	30	3	0.060000	6.241578	26.446351	17.860904
419	30	3	0.060000	6.200244	28.257977	17.845007
420	30	3	0.060000	5.891046	27.358021	19.378086
421	31	1	-0.180000	27.389435	14.795396	14.337443
422	31	2	-0.120000	27.237961	15.712973	13.127764
423	31	2	-0.120000	26.186116	15.173278	12.152468
424	31	1	-0.180000	26.034640	16.090855	10.942790
425	31	3	0.060000	27.712256	13.782397	14.015380
426	31	3	0.060000	28.156146	15.210419	15.025118
427	31	3	0.060000	26.426193	14.716898	14.885265
428	31	3	0.060000	28.220143	15.794284	12.612853
429	31	3	0.060000	26.939485	16.724858	13.479081
430	31	3	0.060000	25.203934	15.091964	12.667379
431	31	3	0.060000	26.484592	14.161392	11.801149
432	31	3	0.060000	25.711818	17.103854	11.264854
433	31	3	0.060000	26.997881	16.169355	10.394968
434	31	3	0.060000	25.267930	15.675832	10.255115
435	32	1	-0.180000	10.256114	16.114513	22.116182
436	32	2	-0.120000	11.057984	14.969507	22.727886
437	32	2	-0.120000	11.277672	13.843451	21.711724
438	32	1	-0.180000	12.079544	12.698446	22.323427
439	32	3	0.060000	9.258236	15.754031	21.786944
440	32	3	0.060000	10.112717	16.913957	22.873356
441	32	3	0.060000	10.797363	16.542748	21.245682
442	32	3	0.060000	10.507514	14.576224	23.610347
443	32	3	0.060000	12.040171	15.361625	23.071360
444	32	3	0.060000	11.828140	14.236734	20.829262
445	32	3	0.060000	10.295484	13.451331	21.368251
446	32	3	0.060000	13.077422	13.058929	22.652663
447	32	3	0.060000	11.538297	12.270211	23.193928
448	32	3	0.060000	12.222940	11.899002	21.566253
449	33	1	-0.180000	24.611934	16.496213	7.801987
450	33	2	-0.120000	25.115298	16.798396	6.393610
451	33	2	-0.120000	26.587934	16.404186	6.236149
452	33	1	-0.180000	27.091296	16.706368	4.827772
453	33	3	0.060000	25.199035	17.067375	8.552448
454	33	3	0.060000	23.544833	16.791361	7.886650
455	33	3	0.060000	24.698176	15.409892	8.017805
456	33	3	0.060000	24.994702	17.885646	6.194185
457	33	3	0.060000	24.495949	16.235131	5.661789
458	33	3	0.060000	26.708530	15.316937	6.435576
459	33	3	0.060000	27.207283	16.967453	6.967970
460	33	3	0.060000	26.504195	16.135204	4.077312
461	33	3	0.060000	27.005054	17.792687	4.611953
462	33	3	0.060000	28.158398	16.411220	4.743110
463	34	1	-0.180000	7.141633	14.373138	22.402823
464	34	2	-0.120000	6.947542	15.485075	23.429536
465	34	2	-0.120000	6.717309	14.909605	24.831206
466	34	1	-0.180000	6.523220	16.021542	25.857919
467	34	3	0.060000	6.240233	13.725215	22.360636
468	34	3	0.060000	7.305956	14.818575	21.399045
469	34	3	0.060000	8.026214	13.754854	22.666162
470	34	3	0.060000	6.073109	16.102953	23.129502
471	34	3	0.060000	7.851583	16.132467	23.433744
472	34	3	0.060000	7.591740	14.291725	25.131240
473	34	3	0.060000	5.813267	14.262214	24.826999
474	34	3	0.060000	7.424621	16.669463	25.900106
475	34	3	0.060000	5.638641	16.639828	25.594581
476	34	3	0.060000	6.358896	15.576105	26.861697
477	35	1	-0.180000	22.035157	25.248803	20.952074
478	35	2	-0.120000	23.358765	25.595589	20.276784
479	35	2	-0.120000	23.262119	26.924996	19.520351
480	35	1	-0.180000	24.585726	27.271784	18.845062
481	35	3	0.060000	21.229136	25.150896	20.193887
482	35	3	0.060000	22.134671	24.283149	21.491144
483	35	3	0.060000	21.757114	26.037054	21.683825
484	35	3	0.060000	23.626127	24.780247	19.569563
485	35	3	0.060000	24.151885	25.662680	21.053239
486	35	3	0.060000	22.994755	27.740338	20.227570
487	35	3	0.060000	22.468999	26.857905	18.743894
488	35	3	0.060000	25.391746	27.369691	19.603251
489	35	3	0.060000	24.863772	26.483533	18.113313
490	35	3	0.060000	24.486212	28.237437	18.305992
491	36	1	-0.180000	5.565560	9.317197	14.969627
492	36	2	-0.120000	4.572666	8.990619	16.081257
493	36	2	-0.120000	3.887337	10.259117	16.600959
494	36	1	-0.180000	2.894441	9.932538	17.712588
495	36	3	0.060000	6.355984	10.000664	15.346732
496	36	3	0.060000	6.045677	8.381498	14.613338
497	36	3	0.060000	5.043283	9.796405	14.114237
498	36	3	0.060000	5.115498	8.490128	16.912683
499	36	3	0.060000	3.808314	8.286728	15.685368
500	36	3	0.060000	3.344507	10.759609	15.769534
501	36	3	0.060000	4.651689	10.963007	16.996850
502	36	3	0.060000	2.104018	9.249072	17.335481
503	36	3	0.060000	3.416717	9.453329	18.567978
504	36	3	0.060000	2.414326	10.868238	18.068877
505	37	1	-0.180000	7.504660	8.899282	17.837367
506	37	2	-0.120000	6.815782	8.679983	19.181082
507	37	2	-0.120000	7.276022	7.370741	19.831402
508	37	1	-0.180000	6.587146	7.151442	21.175118
509	37	3	0.060000	7.262544	8.069448	17.139613
510	37	3	0.060000	7.152771	9.852945	17.390503
511	37	3	0.060000	8.605829	8.955556	17.972888
512	37	3	0.060000	5.715746	8.652826	19.021052
513	37	3	0.060000	7.053386	9.535210	19.850825
514	37	3	0.060000	8.376058	7.397896	19.991429
515	37	3	0.060000	7.038417	6.515513	19.161659
516	37	3	0.060000	6.829265	7.981276	21.872870
517	37	3	0.060000	5.485977	7.095170	21.039598
518	37	3	0.060000	6.939035	6.197779	21.621981
519	38	1	-0.180000	27.251697	4.713752	22.140564
520	38	2	-0.120000	27.208911	6.227683	21.955104
521	38	2	-0.120000	27.311710	6.606535	20.473633
522	38	1	-0.180000	27.268922	8.120466	20.288172
523	38	3	0.060000	28.207679	4.304028	21.750270
524	38	3	0.060000	27.175514	4.469315	23.221042
525	38	3	0.060000	26.402445	4.235520	21.607486
526	38	3	0.060000	28.052847	6.682941	22.518076
527	38	3	0.060000	26.255201	6.614721	22.375893
528	38	3	0.060000	26.467776	6.151276	19.910660
529	38	3	0.060000	28.265421	6.219499	20.052844
530	38	3	0.060000	26.312939	8.530188	20.678466
531	38	3	0.060000	28.118172	8.598699	20.821251
532	38	3	0.060000	27.345106	8.364903	19.207694
533	39	1	-0.180000	10.751959	19.839326	17.563793
534	39	2	-0.120000	11.512313	18.519187	17.478295
535	39	2	-0.120000	11.611518	17.848063	18.852560
536	39	1	-0.180000	12.371870	16.527923	18.767062
537	39	3	0.060000	11.273796	20.541572	18.248367
538	39	3	0.060000	10.695861	20.301933	16.555907
539	39	3	0.060000	9.718655	19.666277	17.933176
540	39	3	0.060000	12.532621	18.716810	17.082894
541	39	3	0.060000	10.984017	17.845194	16.769028
542	39	3	0.060000	10.591210	17.650441	19.247963
543	39	3	0.060000	12.139816	18.522055	19.561827
544	39	3	0.060000	11.850031	15.825677	18.082489
545	39	3	0.060000	13.405173	16.700970	18.397678
546	39	3	0.060000	12.427969	16.065317	19.774948
547	40	1	-0.180000	5.550757	22.554265	17.480696
548	40	2	-0.120000	6.059017	23.980031	17.288141
549	40	2	-0.120000	6.987768	24.076719	16.072853
550	40	1	-0.180000	7.496027	25.502485	15.880296
551	40	3	0.060000	6.402096	21.860283	17.647178
552	40	3	0.060000	4.881912	22.514470	18.366162
553	40	3	0.060000	4.977824	22.224928	16.587728
554	40	3	0.060000	6.605988	24.293599	18.204068
555	40	3	0.060000	5.187704	24.656712	17.149071
556	40	3	0.060000	6.440798	23.763149	15.156926
557	40	3	0.060000	7.859083	23.400039	16.211924
558	40	3	0.060000	6.644687	26.196465	15.713813
559	40	3	0.060000	8.068958	25.831823	16.773264
560	40	3	0.060000	8.164873	25.542280	14.994831
561	41	1	-0.180000	10.981894	16.678137	7.356628
562	41	2	-0.120000	11.766818	16.046792	8.502715
563	41	2	-0.120000	13.236818	15.843032	8.120048
564	41	1	-0.180000	14.021742	15.211689	9.266134
565	41	3	0.060000	11.012316	16.022097	6.460642
566	41	3	0.060000	9.922841	16.813579	7.661666
567	41	3	0.060000	11.407102	17.671557	7.098904
568	41	3	0.060000	11.306288	15.067234	8.757279
569	41	3	0.060000	11.699415	16.709760	9.392858
570	41	3	0.060000	13.697347	16.822590	7.865481
571	41	3	0.060000	13.304221	15.180062	7.229905
572	41	3	0.060000	13.991321	15.867731	10.162119
573	41	3	0.060000	13.596535	14.218270	9.523861
574	41	3	0.060000	15.080795	15.076247	8.961096
575	42	1	-0.180000	5.503343	18.753042	2.758826
576	42	2	-0.120000	4.492108	19.507251	3.617190
577	42	2	-0.120000	3.683810	20.500589	2.775295
578	42	1	-0.180000	2.672574	21.254796	3.633658
579	42	3	0.060000	6.218262	19.463163	2.291147
580	42	3	0.060000	6.073080	18.042261	3.393788
581	42	3	0.060000	4.982184	18.179260	1.963042
582	42	3	0.060000	5.036519	20.051600	4.419515
583	42	3	0.060000	3.805636	18.773094	4.092789
584	42	3	0.060000	3.139400	19.956240	1.972969
585	42	3	0.060000	4.370282	21.234747	2.299698
586	42	3	0.060000	1.957654	20.544674	4.101336
587	42	3	0.060000	3.193731	21.828577	4.429444
588	42	3	0.060000	2.102837	21.965577	2.998697
589	43	1	-0.180000	22.022326	11.861612	22.750244
590	43	2	-0.120000	20.691228	11.835591	23.495709
591	43	2	-0.120000	19.544686	12.311893	22.597138
592	43	1	-0.180000	18.213589	12.285870	23.342602
593	43	3	0.060000	22.257956	12.894889	22.417195
594	43	3	0.060000	22.832722	11.512371	23.424243
595	43	3	0.060000	21.982354	11.190853	21.865603
596	43	3	0.060000	20.766223	12.493944	24.388667
597	43	3	0.060000	20.491779	10.797070	23.839393
598	43	3	0.060000	19.469692	11.653542	21.704179
599	43	3	0.060000	19.744135	13.350415	22.253455
600	43	3	0.060000	17.977959	11.252592	23.675649
601	43	3	0.060000	18.253559	12.956627	24.227244
602	43	3	0.060000	17.403192	12.635112	22.668603
603	44	1	-0.180000	16.539105	15.781294	12.216653