LAMMPS (3 Mar 2020)
  using 1 OpenMP thread(s) per MPI task
units           real
atom_style      full
boundary        p p p


pair_style      lj/cut/coul/long 12.0
pair_modify     tail yes mix geometric
bond_style      harmonic
angle_style     harmonic
dihedral_style  opls

kspace_style    ewald 1.0e-5
#special_bonds   lj/coul 0.0 0.0 0.5

neighbor        2.0 bin
neigh_modify    every 1 delay 0 check yes

read_data       buate_after_min.data
  orthogonal box = (0 0 0) to (35 35 35)
  2 by 3 by 5 MPI processor grid
  reading atoms ...
  2352 atoms
  reading velocities ...
  2352 velocities
  scanning bonds ...
  1 = max bonds/atom
  scanning angles ...
  6 = max angles/atom
  scanning dihedrals ...
  11 = max dihedrals/atom
  reading bonds ...
  2184 bonds
  reading angles ...
  4032 angles
  reading dihedrals ...
  4536 dihedrals
  4 = max # of 1-2 neighbors
  6 = max # of 1-3 neighbors
  9 = max # of 1-4 neighbors
  13 = max # of special neighbors
  special bonds CPU = 0.00115793 secs
  read_data CPU = 0.0261445 secs

group           mobile union all
2352 atoms in group mobile

#minimize 1.0e-8 1.0e-10 400000 400000
#write_data buate_after_min.data

thermo_style    custom step time  etotal ke pe temp press vol density
#thermo_modify   line multi
thermo          2000
thermo_modify   flush yes
timestep 1.0


## Equil NPT ##
fix      NPT  all npt temp 250 250 100 iso 1 1 1000
restart 1000000 liqbut1.restart

#fix      NPT  all npt temp 160 160 50 iso 1 1 500
dump myDump all atom 2000 butane_npt.lammpstrj

run 5000000
Ewald initialization ...
  using 12-bit tables for long-range coulomb (src/kspace.cpp:332)
  G vector (1/distance) = 0.183139
  estimated absolute RMS force accuracy = 0.00345955
  estimated relative force accuracy = 1.04183e-05
  KSpace vectors: actual max1d max3d = 257 5 665
                  kxmax kymax kzmax  = 5 5 5
Neighbor list info ...
  update every 1 steps, delay 0 steps, check yes
  max neighbors/atom: 2000, page size: 100000
  master list distance cutoff = 14
  ghost atom cutoff = 14
  binsize = 7, bins = 5 5 5
  1 neighbor lists, perpetual/occasional/extra = 1 0 0
  (1) pair lj/cut/coul/long, perpetual
      attributes: half, newton on
      pair build: half/bin/newton
      stencil: half/bin/3d/newton
      bin: standard
Per MPI rank memory allocation (min/avg/max) = 21.73 | 21.87 | 22.23 Mbytes
Step Time TotEng KinEng PotEng Temp Press Volume Density 
       0            0   -769.51728            0   -769.51728            0   -124.28966        42875   0.37818125 
    2000         2000    -183.2515    428.92484   -612.17633    61.206037   -151.23504    34541.328   0.46942379 
    4000         4000    2638.8611    1795.2504    843.61066    256.17581     243.8328    49704.156   0.32622063 
    6000         6000    3012.7068    1790.4424    1222.2643    255.48972   -151.88821    62706.688   0.25857722 
    8000         8000    3069.4629    1728.9133    1340.5496    246.70973    245.29111    73694.772   0.22002267 
   10000        10000    3109.7062    1740.1731    1369.5332    248.31646    85.042735    79964.502   0.20277149 
   12000        12000     3223.396    1756.4858    1466.9102    250.64423    386.96138    86952.772   0.18647503 
   14000        14000    3212.3881    1725.2528    1487.1354    246.18739    -618.6472    90623.127   0.17892255 
   16000        16000     3300.498    1749.5296    1550.9684     249.6516    270.69182    98179.445   0.16515189 
   18000        18000    3263.4367    1720.8154    1542.6214    245.55419    65.766488    100089.28   0.16200058 
   20000        20000    3326.8065     1778.295    1548.5116    253.75632   -20.149279    104990.12   0.15443855 
   22000        22000    3267.8009    1712.3112    1555.4897    244.34068    41.069975    110782.93     0.146363 
   24000        24000    3397.5019    1739.1443    1658.3576    248.16966   -503.42667    116720.36   0.13891767 
   26000        26000    3310.6838     1733.933    1576.7508    247.42603   -170.97895    105809.84   0.15324209 
   28000        28000    3341.0113    1754.0136    1586.9978    250.29145    17.965573    100594.29   0.16118729 
   30000        30000    3220.5842    1772.4633    1448.1209    252.92417   -26.733322    92520.317   0.17525363 
   32000        32000    3193.1849    1742.7364    1450.4485    248.68224   -90.370339    86169.797   0.18816942 
   34000        34000    3157.5249    1737.0178    1420.5072    247.86621    -239.6564    78478.201   0.20661178 
   36000        36000    3158.8388    1724.9987      1433.84    246.15114   -461.56797    70034.102   0.23152322 
   38000        38000    3175.1071    1799.8409    1375.2662    256.83085   -70.587339    64407.268   0.25174986 
   40000        40000    3256.4786    1819.4851    1436.9934    259.63401    129.58657    59666.002   0.27175478 
   42000        42000    3065.7881    1772.0341    1293.7539    252.86292    -290.4961    51962.942   0.31204009 
   44000        44000    3025.2065    1781.0263    1244.1801    254.14608   -340.29713    46198.279   0.35097673 
   46000        46000    2967.1821    1745.3517    1221.8304    249.05544    162.77051    40778.982   0.39761956 
   48000        48000    3032.1852    1795.5567    1236.6285     256.2195   -455.44094    35676.939   0.45448184 
   50000        50000    2854.7693    1726.0373    1128.7321    246.29933    341.44901    32130.601   0.50464418 
   52000        52000    2944.3666    1795.2956    1149.0711    256.18224   -868.54783    29583.581    0.5480919 
   54000        54000    2773.0464    1757.2699    1015.7764    250.75612   -187.14258    27222.632   0.59562649 
   56000        56000    2685.6198    1736.2513     949.3685    247.75684   -204.87533    26978.539   0.60101554 
   58000        58000    2826.5274    1790.3814     1036.146    255.48101     -1226.47    27290.792    0.5941389 
   60000        60000    2759.9591    1697.5088    1062.4503    242.22843   -2815.5671     26429.37   0.61350388 
   62000        62000    2781.4334    1764.4131    1017.0203    251.77543   -250.76066    26376.869     0.614725 
   64000        64000    2754.9758    1761.2368    993.73899    251.32218   -44.579411    26063.579   0.62211413 
   66000        66000    2813.0816    1788.9239    1024.1577    255.27304    49.460936     25735.97    0.6300334 
   68000        68000     2713.354    1779.2309    934.12314    253.88987    233.11092    25238.654   0.64244792 
   70000        70000    2752.1511    1748.4679    1003.6832     249.5001    1382.1161    25953.717   0.62474755 
   72000        72000    2702.6176    1737.6941    964.92351    247.96272   -2712.7488    25777.857   0.62900966 
   74000        74000    2778.5079    1756.6207    1021.8872    250.66348    1682.4012     25605.69   0.63323898 
   76000        76000    2698.4968    1721.1459    977.35088    245.60136    1421.8991     25049.42   0.64730124 
   78000        78000     2707.197    1777.7821    929.41486    253.68314   -5.7536906    25274.687   0.64153201 
   80000        80000    2747.6531    1776.3515     971.3016    253.47899    -1391.825    24917.396   0.65073097 
   82000        82000    2680.1578    1681.4381    998.71974    239.93519    107.96314    25303.856    0.6407925 
   84000        84000    2809.7862    1828.4042    981.38203    260.90672   -316.67932    25370.967   0.63909748 
   86000        86000     2686.423    1734.5625     951.8605    247.51585    1020.3265    25624.513   0.63277381 
   88000        88000    2745.0727    1757.3743    987.69843    250.77101    110.89517    25415.175   0.63798581 
   90000        90000    2705.1248    1730.2072    974.91767    246.89436    1186.5392    25640.764   0.63237278 
   92000        92000     2755.973     1754.095    1001.8779    250.30308    2128.7403    25830.585   0.62772565 
   94000        94000    2796.9052    1812.0334    984.87183    258.57067    1837.6406     25583.76   0.63378177 
   96000        96000    2746.4848    1773.4052    973.07958    253.05857    814.05871    25870.462   0.62675807 
   98000        98000    2768.6069    1774.1817    994.42524    253.16937   -571.15579    25665.021    0.6317751 
  100000       100000    2731.4307    1711.2612    1020.1695    244.19084    -60.53555    25521.566   0.63532626 
  102000       102000    2750.8833    1786.6822    964.20107    254.95315    572.74886    25601.703    0.6333376 
  104000       104000    2725.1716    1705.9401    1019.2315    243.43154   -918.19283    26014.741   0.62328205 
  106000       106000    2719.4377    1739.6522    979.78548    248.24214    -848.0184    25979.993   0.62411569 
  108000       108000    2803.3692    1784.5996    1018.7696    254.65597    1919.1452    25991.973   0.62382802 
  110000       110000    2742.8769    1745.9261    996.95082    249.13739   -221.51769    26055.513   0.62230673 
  112000       112000    2696.5125    1727.2176    969.29487    246.46777    103.68443    25675.308   0.63152196 
  114000       114000    2685.5806    1676.4453    1009.1353    239.22274    1047.8673    25580.818   0.63385468 
  116000       116000    2796.4182    1800.4003    996.01799    256.91067    903.04469    25547.272   0.63468698 
  118000       118000    2755.6998    1745.9856    1009.7141    249.14589   -63.396049    25786.266   0.62880453 
  120000       120000    2704.6625    1753.6489    951.01364    250.23941   -274.07886    25643.203   0.63231262 
  122000       122000    2725.4577    1736.3199    989.13779    247.76663     316.5438    25478.997   0.63638773 
  124000       124000    2754.3519     1734.306    1020.0459    247.47925    191.08739    25787.245   0.62878066 
  126000       126000    2721.2692    1728.9647    992.30445    246.71707    751.39432      26041.6   0.62263919 
  128000       128000    2754.8036    1771.4791    983.32447    252.78373   -246.30264    25895.194   0.62615947 
  130000       130000    2710.8453     1740.794    970.05128    248.40507   -944.37406    25910.365   0.62579283 
  132000       132000    2715.3365    1734.7784    980.55808    247.54666    641.27965    26203.046   0.61880291 
  134000       134000    2753.8228    1715.9573    1037.8655    244.86096    -546.9726    26358.494   0.61515355 
  136000       136000    2759.4763    1745.0428    1014.4335    249.01136    128.39404    26262.738   0.61739643 
  138000       138000    2787.1939    1792.2317     994.9622    255.74505    398.87192    25724.908   0.63030433 
  140000       140000     2710.328    1746.6282    963.69973    249.23759    335.90683    25845.831   0.62735538 
  142000       142000    2727.7314    1717.3045    1010.4268     245.0532   -301.06711    26182.655   0.61928481 
  144000       144000    2747.5335    1758.6583    988.87514    250.95424   -593.45988    25780.294    0.6289502 
  146000       146000    2759.9413    1756.0293     1003.912    250.57909    1137.7121    25679.271    0.6314245 
  148000       148000    2651.9562    1716.5131    935.44314    244.94027   -882.76514    25520.291   0.63535799 
  150000       150000    2779.4344    1758.9374     1020.497    250.99406   -57.442475    25525.851   0.63521961 
  152000       152000    2752.7328    1752.9726    999.76013    250.14291    -735.4233    25141.848   0.64492162 
  154000       154000    2666.6283    1733.4654     933.1629    247.35931    -535.7489     24951.97    0.6498293 
  156000       156000    2736.8628    1763.5155    973.34727    251.64735   -256.78317    25400.491   0.63835463 
  158000       158000    2706.2349    1711.8428     994.3921    244.27383    208.07729    26193.128   0.61903721 
  160000       160000    2716.0575    1760.5697    955.48772      251.227    1662.0942     24786.71   0.65416188 
  162000       162000    2754.6279    1762.5434    992.08447    251.50863   -560.36188    25834.021   0.62764217 
  164000       164000    2763.1833      1744.33    1018.8533    248.90964    911.28734    25508.523   0.63565112 
  166000       166000    2775.5743    1747.7874    1027.7869      249.403    845.12581    25456.397   0.63695271 
  168000       168000    2757.6313    1770.0283    987.60302    252.57669    455.95619    25146.679   0.64479771 
  170000       170000    2713.2524     1747.966    965.28637    249.42849    1192.1283    25657.537   0.63195938 
  172000       172000     2740.475     1754.562    985.91304    250.36971    110.54029    25232.836   0.64259605 
  174000       174000    2769.8174    1801.1887    968.62876    257.02317    598.14811    25350.984   0.63960126 
  176000       176000    2701.9051    1747.0623    954.84279    249.29953    -326.8028    24755.144   0.65499602 
  178000       178000    2768.5619    1760.6198    1007.9421    251.23414    1495.0309    25095.862   0.64610337 
  180000       180000    2703.3506    1757.6137    945.73693    250.80517    550.46158    24524.516   0.66115559 
  182000       182000    2638.6792    1690.1937    948.48551    241.18459   -1759.2941    25570.848    0.6341018 
  184000       184000    2738.0154    1750.1707    987.84467    249.74309   -227.96328    25463.563   0.63677344 
  186000       186000    2750.7182    1753.5429    997.17526    250.22429   -540.41314     26043.64   0.62259043 
  188000       188000     2669.811    1729.2311     940.5799    246.75508   -52.530258    24953.994   0.64977658 
  190000       190000    2758.2105     1795.839    962.37149    256.25979   -608.34207    25268.824   0.64168086 
  192000       192000     2776.182    1752.3908    1023.7912    250.05989   -694.60621    25678.431   0.63144516 
  194000       194000    2732.4822    1720.2636    1012.2186    245.47545    1269.7941    25357.997   0.63942434 
  196000       196000    2744.8201    1776.4219     968.3982    253.48904    1096.6766    25288.327   0.64118599 
  198000       198000    2828.2594    1767.6431    1060.6163    252.23633   -1292.9847     26022.47   0.62309693 
  200000       200000     2689.402    1713.9031    975.49887    244.56784   -69.958076    25837.378   0.62756061 
  202000       202000    2745.7783    1793.1483    952.63001    255.87584    312.49238    25323.078   0.64030608 
  204000       204000    2753.3682    1776.2232    977.14507    253.46068   -1197.8769    25714.422   0.63056137 
  206000       206000    2763.6254    1789.9987     973.6267    255.42641    820.45413    25782.016   0.62890818 
  208000       208000     2738.173    1734.8915    1003.2815     247.5628   -366.85873    25983.479   0.62403196 
  210000       210000    2812.3217    1790.9207     1021.401    255.55797   -265.77375    25356.491   0.63946234 
  212000       212000    2692.6966    1717.7753    974.92126    245.12038    1155.6294    25595.735   0.63348527 
  214000       214000     2763.899    1765.4495    998.44945    251.92332   -15.227956    25463.556   0.63677363 
  216000       216000    2743.7229    1767.9537    975.76921    252.28066   -2186.3396    26075.283   0.62183491 
  218000       218000    2694.9832    1774.7203    920.26284    253.24624    204.74556    25277.465   0.64146151 
  220000       220000    2816.2536    1728.7028    1087.5508    246.67969   -434.53434    26298.642   0.61655354 
  222000       222000    2754.5958     1771.388    983.20778    252.77072    61.298946     25028.81   0.64783427 
  224000       224000    2654.8233    1724.6085    930.21478    246.09546   -819.55613     25092.93   0.64617885 
  226000       226000    2690.1707    1762.2689    927.90174    251.46947   -88.312984    24852.186   0.65243841 
  228000       228000    2766.9377    1777.6635    989.27426    253.66621    218.58805    25341.551   0.63983934 
  230000       230000    2789.8003    1820.4596    969.34065    259.77306    1745.1062    25546.434   0.63470781 
  232000       232000    2750.4624    1777.5381    972.92432    253.64832    489.34736    25285.756   0.64125119 
  234000       234000    2728.1618    1737.5412    990.62057     247.9409     96.35947    25718.979   0.63044964 
  236000       236000    2815.6298     1785.496    1030.1338    254.78388    1657.6997    25445.371   0.63722871 
  238000       238000    2657.2051    1689.0101    968.19507    241.01569   -105.77642     25480.59   0.63634794 
  240000       240000    2791.4598    1802.1841    989.27568    257.16521   -13.438116    25101.667   0.64595394 
  242000       242000    2741.9696    1751.0882     990.8814    249.87402    874.47492    25302.014   0.64083914 
  244000       244000    2634.5668    1711.5973    922.96942    244.23881    711.41464    24839.018    0.6527843 
  246000       246000    2681.6523    1711.9076    969.74464    244.28309   -393.96131    25238.139   0.64246102 
  248000       248000    2787.9796    1811.1111    976.86848    258.43907   -772.77649    25117.477   0.64554736 
  250000       250000     2767.323    1784.6449    982.67816    254.66243    713.32305    25303.672   0.64079715 
  252000       252000    2708.7259    1757.5512    951.17469    250.79626   -624.00623    25230.126   0.64266508 
  254000       254000    2776.3925    1802.7054    973.68715     257.2396   -1234.4089    25388.065   0.63866706 
  256000       256000    2741.9312     1757.103    984.82823     250.7323    1597.4331    25811.755    0.6281836 
  258000       258000    2790.3458    1785.8949    1004.4508    254.84081   -710.09697    25898.979   0.62606796 
  260000       260000    2772.4407     1769.696    1002.7447    252.52928   -766.96749    25606.429    0.6332207 
  262000       262000    2711.0864    1730.6741    980.41227      246.961   -840.42551    25686.471   0.63124751 
  264000       264000    2744.5138    1782.9185    961.59522    254.41609    339.71229    25808.873   0.62825374 
  266000       266000    2659.2203     1714.847    944.37332    244.70253   -423.38215    25597.353   0.63344523 
  268000       268000    2734.7504    1752.4507    982.29966    250.06844   -726.90042    25698.279   0.63095746 
  270000       270000    2691.2479     1696.777    994.47095    242.12399    331.57358    25633.551   0.63255072 
  272000       272000    2716.9635    1691.9947    1024.9688    241.44158     751.4267    26158.251   0.61986258 
  274000       274000    2737.4125    1725.6526    1011.7599    246.24445    14.933859    25496.222    0.6359578 
  276000       276000    2756.5397    1771.0122    985.52749    252.71709   -517.25126    26179.604     0.619357 
  278000       278000    2792.9237    1740.2462    1052.6775     248.3269    -1404.816    25528.437   0.63515525 
  280000       280000    2739.1317    1741.1062    998.02557    248.44961    506.75444     25319.59    0.6403943 
  282000       282000    2722.5868    1720.3587    1002.2281    245.48902   -838.18928    25536.696   0.63494984 
  284000       284000    2825.2671    1816.5481     1008.719    259.21491    1314.4619    25610.075   0.63313056 
  286000       286000    2768.1856    1758.3873    1009.7983    250.91557    72.510721    25630.304   0.63263084 
  288000       288000    2771.2962     1799.109     972.1872     256.7264   -536.84393    25585.221   0.63374558 
  290000       290000    2772.7853      1781.38    991.40538    254.19654    108.27676    25143.399   0.64488181 
  292000       292000     2748.616    1781.4542    967.16186    254.20713   -76.153569    25289.844   0.64114753 
  294000       294000    2688.1318    1753.9128    934.21903    250.27707     150.4207    25531.148   0.63508781 
  296000       296000    2760.7475    1761.3744    999.37309    251.34182    1076.6751    25626.354   0.63272835 
  298000       298000    2723.0305    1764.5683    958.46216    251.79757    339.61975    25017.639   0.64812354 
  300000       300000    2699.6035    1759.5395    940.06404    251.07998   -391.43962    25283.013   0.64132076 
  302000       302000    2740.9273    1757.2386    983.68875    250.75165   -307.58425    25635.006   0.63251481 
  304000       304000    2746.5784     1788.389    958.18936    255.19671    547.95175    25241.825   0.64236721 
  306000       306000    2785.3799    1803.0272    982.35272    257.28552   -303.90516    25286.324   0.64123679 
  308000       308000    2704.5744    1739.5426    965.03178     248.2265   -584.73975    24657.725   0.65758382 
  310000       310000    2671.5523    1680.5167    991.03561    239.80372   -160.10563    25203.669   0.64333971 
  312000       312000    2786.2124    1786.3567    999.85571     254.9067   -459.76788    25660.423   0.63188829 
  314000       314000     2706.465    1768.7829    937.68205    252.39898   -1259.5277    25331.992   0.64008076 
  316000       316000    2746.3866    1756.0757    990.31093    250.58571    275.19916    25804.234   0.62836669 
  318000       318000    2770.2546    1760.5614    1009.6932     251.2258   -1162.5653    25815.347   0.62809617 
  320000       320000    2717.5335    1731.1743    986.35923    247.03237    907.52781    25747.159   0.62975962 
  322000       322000    2802.6963    1798.9736    1003.7227    256.70709   -812.25088    25397.831   0.63842149 
  324000       324000     2700.508    1740.6867    959.82135    248.38975   -36.264717    25526.553   0.63520213 
  326000       326000    2750.2509    1756.0206    994.23027    250.57785   -532.82718    25488.899    0.6361405 
  328000       328000     2701.859    1733.6818    968.17715    247.39019   -1541.7002    25297.004   0.64096605 
  330000       330000    2766.7612    1724.0683    1042.6929    246.01837   -1049.0739    25591.928   0.63357951 
  332000       332000    2706.0224    1710.6834    995.33905    244.10839    817.92815    25619.221   0.63290454 
  334000       334000     2732.418    1745.7683    986.64965    249.11489   -59.652749    25680.946   0.63138331 
  336000       336000    2682.9941    1752.5163    930.47776     250.0778    718.14715    25800.947   0.62844674 
  338000       338000    2739.8604    1759.4549    980.40557    251.06791   -1083.7327    25830.273   0.62773323 
  340000       340000    2668.4518    1733.0914    935.36045    247.30593   -539.24636    25081.681   0.64646868 
  342000       342000    2736.2935    1774.1504    962.14304    253.16491     1451.045    24703.814   0.65635698 
  344000       344000    2883.3577    1800.3982    1082.9595    256.91037   -489.60108    26251.997   0.61764905 
  346000       346000    2678.0448    1697.4994    980.54533    242.22709    774.11838    25610.295   0.63312513 
  348000       348000    2744.3561    1752.8462    991.50984    250.12488   -229.51133    26045.255   0.62255182 
  350000       350000    2736.6428    1772.4944    964.14843     252.9286    35.582483    25232.442    0.6426061 
  352000       352000    2704.0766    1694.2545    1009.8221    241.76405   -763.55454    26217.171    0.6184695 
  354000       354000    2667.4899    1730.5656    936.92425    246.94552   -418.23757    25644.998   0.63226837 
  356000       356000    2719.4033    1712.1891    1007.2142    244.32325    357.49572    25319.588   0.64039433 
  358000       358000    2794.5992    1752.6479    1041.9513    250.09657    463.66189     25516.95   0.63544118 
  360000       360000     2670.675    1720.2137    950.46132    245.46833    1436.0523    25243.974   0.64231254 
  362000       362000    2767.0461    1765.9753    1001.0708    251.99834    1313.9145    25642.209   0.63233714 
  364000       364000    2790.9625    1811.1288    979.83379    258.44158    -734.1435    25773.315   0.62912052 
  366000       366000    2754.2632    1749.8902    1004.3731    249.70306    366.35942    25511.218   0.63558397 
  368000       368000    2785.2791    1789.5791    995.69998    255.36653    1336.2429      25733.8   0.63008653 
  370000       370000    2686.1961    1707.2539    978.94215    243.61902   -572.02798      25451.2   0.63708276 
  372000       372000    2804.2176    1814.6978    989.51985    258.95087    931.74242    25520.717   0.63534739 
  374000       374000    2725.4094    1786.3507    939.05876    254.90584    805.51716    25283.371   0.64131166 
  376000       376000    2799.5175    1757.9376    1041.5799    250.85139    1549.8223     25950.18    0.6248327 
  378000       378000    2678.8574    1713.4911    965.36624    244.50905    960.81932    25878.932   0.62655294 
  380000       380000    2781.5819     1793.729    987.85289     255.9587    976.79944    26358.786   0.61514672 
  382000       382000    2741.0666    1732.1287     1008.938    247.16855   -462.12347    26173.721    0.6194962 
  384000       384000    2775.2791    1740.2186    1035.0605    248.32296   -689.21547    25946.521   0.62492081 
  386000       386000    2781.8119    1776.6566    1005.1552    253.52254    2410.7083    25657.604   0.63195771 
  388000       388000     2777.351    1755.8341    1021.5168    250.55124     290.5562    26192.482   0.61905249 
  390000       390000    2818.0558    1784.5764    1033.4794    254.65266    480.93301    25968.756   0.62438574 
  392000       392000    2756.9149    1749.0477    1007.8672    249.58284   -276.01195    26261.941   0.61741517 
  394000       394000     2743.776    1752.4318    991.34421    250.06574    618.67702    25649.481   0.63215787 
  396000       396000    2761.9287    1758.2011    1003.7276    250.88899    439.83687    25404.035   0.63826556 
  398000       398000    2725.8357    1724.5629    1001.2728    246.08895    36.095843    25885.029   0.62640537 
  400000       400000    2803.9743    1751.5021    1052.4722    249.93307   -203.94015    25512.289   0.63555728 
  402000       402000    2745.5036    1745.8843     999.6193    249.13144    400.71351    25933.005   0.62524651 
  404000       404000    2663.1199     1756.187    906.93292    250.60159   -1192.4287    25652.892   0.63207379 
  406000       406000    2788.8375    1774.9531    1013.8843    253.27945    113.05383    25916.633   0.62564149 
  408000       408000      2699.32    1767.5981    931.72191    252.22991    547.99243    24698.503   0.65649814 
  410000       410000    2726.4645     1738.456    988.00855    248.07144   -1357.2385    25885.116   0.62640324 
  412000       412000    2799.4026    1760.4571    1038.9455    251.21092   -281.11835    26112.075   0.62095872 
  414000       414000    2719.3008    1723.8817    995.41912    245.99175     2982.248    25632.495   0.63257678 
  416000       416000    2750.9486    1767.6631    983.28547     252.2392   -915.91336    25797.596   0.62852836 
  418000       418000    2756.7793    1735.8938    1020.8855    247.70583   -690.37816    26211.223   0.61860985 
  420000       420000     2743.193    1726.0574    1017.1356    246.30221   -460.93237     25577.66   0.63393294 
  422000       422000    2811.0814    1789.0926    1021.9888     255.2971     1159.756    25463.991   0.63676275 
  424000       424000    2783.0357    1804.7761    978.25955    257.53508    29.203203     26394.27   0.61431973 
  426000       426000    2693.5491    1703.5209     990.0282    243.08633   -244.45668    26505.635   0.61173862 
  428000       428000    2715.5356    1692.4244    1023.1111     241.5029    851.65624    25874.944    0.6266495 
  430000       430000    2707.7146    1746.5861    961.12845    249.23158   -545.60363    25704.299    0.6308097 
  432000       432000    2752.7255     1765.691    987.03451    251.95777   -1441.7485    25695.708   0.63102058 
  434000       434000    2781.6215    1779.0697    1002.5518    253.86687    229.59165    26107.997   0.62105571 
  436000       436000    2757.3411    1739.4361     1017.905    248.21129   -1649.9249    25860.714   0.62699432 
  438000       438000    2812.7154     1763.947    1048.7683    251.70892    982.95193    25614.917   0.63301087 
  440000       440000    2694.7507    1726.1976    968.55312    246.32221      524.004     25073.42   0.64668166 
  442000       442000    2733.8584     1780.501    953.35746    254.07111    553.13601    25125.108    0.6453513 
  444000       444000    2761.9471    1778.4013    983.54574     253.7715    140.67999    25491.823   0.63606753 
  446000       446000    2664.1985    1717.0329     947.1656    245.01445    -637.7466    24911.133   0.65089456 
  448000       448000    2751.8344    1746.3141    1005.5202    249.19277    829.57986    26037.509   0.62273704 
  450000       450000    2733.7434    1715.6657    1018.0777    244.81935   -1245.9834    25786.194   0.62880629 
  452000       452000    2762.2332    1762.4431    999.79012    251.49432    1157.8656     25558.33   0.63441239 
  454000       454000    2715.1973    1761.1898    954.00759    251.31547    570.49625    25261.202   0.64187449 
  456000       456000    2802.4012    1779.3484    1023.0528    253.90664   -558.89279    25954.018    0.6247403 
  458000       458000    2726.1963    1789.7782    936.41809    255.39493    1222.4394    25258.894   0.64193313 
  460000       460000    2740.3366    1758.8497    981.48684    250.98155    294.29416    25138.129   0.64501701 
  462000       462000    2708.3744    1721.5801    986.79435    245.66331    -639.1346    25666.368   0.63174194 
  464000       464000    2674.6932    1717.4118    957.28142    245.06851   -265.19667    25426.919   0.63769115 
  466000       466000    2790.7976    1808.1937    982.60392    258.02276   -555.59419    26342.546   0.61552596 
  468000       468000    2710.7811    1735.8546    974.92652    247.70023    1062.6124    25709.435   0.63068367 
  470000       470000     2768.831    1764.1378    1004.6932    251.73615    355.61111    25426.619   0.63769866 
  472000       472000    2752.4295    1763.9021    988.52741    251.70251    1837.7886    25609.772   0.63313804 
  474000       474000    2740.7574     1762.514    978.24339    251.50443   -557.47167    25980.109   0.62411288 
  476000       476000    2769.6534    1726.5101    1043.1432    246.36681     602.0549    26010.156   0.62339191 
  478000       478000    2733.9744    1745.5491     988.4253    249.08361   -482.69561    25635.115   0.63251212 
  480000       480000    2735.2653    1773.4226    961.84272    253.06105   -669.35043    26092.826   0.62141682 
  482000       482000    2708.8145    1695.9502    1012.8643    242.00602   -986.35928    26258.973   0.61748495 
  484000       484000    2748.8628    1743.9129    1004.9499    248.85012   -329.67313    26070.127   0.62195789 
  486000       486000    2735.6995    1733.3284    1002.3711    247.33976    164.46325    25676.299    0.6314976 
  488000       488000    2720.2395    1738.7398    981.49967    248.11194    3188.8792    25200.079   0.64343135 
  490000       490000    2760.0467     1765.593    994.45374     251.9438    364.16132    25934.709   0.62520543 
  492000       492000    2735.6029     1774.641    960.96191    253.23491    1104.0495    26047.864   0.62248946 
  494000       494000    2740.0283    1761.6285    978.39985    251.37807   -677.66927    25742.635   0.62987028 
  496000       496000     2712.301    1754.6606    957.64037    250.38378    968.03163    24937.826   0.65019784 
  498000       498000    2725.6533    1745.7474    979.90593     249.1119    503.38272    25668.867   0.63168043 
  500000       500000    2692.6481    1741.7349    950.91319    248.53933    292.83422    25497.941   0.63591491 
  502000       502000    2774.6187    1779.3869    995.23181    253.91213     282.2079    25645.949   0.63224492 
  504000       504000    2604.8417    1717.8997    886.94199    245.13813    11.558554    25320.025   0.64038329 
  506000       506000    2801.6928    1769.1606    1032.5322    252.45288   -469.08053    25906.531   0.62588544 
  508000       508000    2739.9472    1775.0752    964.87194    253.29688    400.54644    25413.047   0.63803922 
  510000       510000    2810.4501    1767.2727    1043.1774    252.18348   -381.41783    25866.812   0.62684651 
  512000       512000    2726.0266    1737.2272    988.79931     247.8961   -848.28238    24928.107   0.65045134 
  514000       514000    2771.5792    1773.8346     997.7446    253.11985   -85.708784    25550.394   0.63460942 
  516000       516000    2832.7639    1808.0978    1024.6662    258.00907    437.14789    26015.169   0.62327179 
  518000       518000    2740.7174    1698.5436    1042.1738    242.37609   -130.35782    26024.026   0.62305966 
  520000       520000    2749.5987    1766.8245    982.77426    252.11952    1560.6548    26101.902   0.62120074 
  522000       522000    2734.7599    1760.2446    974.51531    251.18059   -156.50157    25714.645   0.63055589 
  524000       524000      2742.63    1753.9927    988.63734    250.28847    1257.0042    25644.793   0.63227342 
  526000       526000    2744.9992    1782.5202    962.47895    254.35925    82.808648    25864.476   0.62690313 
  528000       528000    2761.8357    1779.9191    981.91659    253.98808    2076.6091    25587.586   0.63368702 
  530000       530000    2767.3274    1756.3957    1010.9316    250.63138   -281.47413    25755.373   0.62955877 
  532000       532000     2757.386    1764.5036    992.88237    251.78834     1369.397    26207.564   0.61869623 
  534000       534000    2785.9166    1778.4037    1007.5129    253.77184    1185.0139    25831.774   0.62769676 
  536000       536000    2783.4527    1763.4754    1019.9773    251.64162    48.406447    25852.861   0.62718477 
  538000       538000    2706.7532    1738.1415    968.61167    248.02657   -140.53432    25535.568   0.63497788 
  540000       540000    2806.4561    1816.7918    989.66433    259.24967   -320.04255    25660.061   0.63189722 
  542000       542000    2748.3339    1741.3554    1006.9785    248.48518   -345.01491    26068.391    0.6219993 
  544000       544000    2713.5127    1734.6507    978.86195    247.52844   -407.47581    25129.174   0.64524687 
  546000       546000    2782.4113     1808.716     973.6953    258.09729    256.17526    25162.857   0.64438314 
  548000       548000    2768.9947    1729.7166    1039.2781    246.82437   -273.52916    25708.533   0.63070579 
  550000       550000    2713.7465    1717.2765    996.46999    245.04921    168.67055     25210.17    0.6431738 
  552000       552000    2741.2939    1771.8833    969.41054     252.8414   -627.38349    25720.156   0.63042079 
  554000       554000    2686.3167    1767.9973    918.31943    252.28687   -158.95418    25147.903   0.64476633 
  556000       556000    2715.2661    1738.8277    976.43837    248.12448    2305.3639      24802.4   0.65374806 
  558000       558000    2736.7807    1735.4959    1001.2848    247.64904   -1180.2422    25418.207    0.6379097 
  560000       560000    2744.1314    1729.2776    1014.8538    246.76172    1726.9206    25940.639   0.62506251 
  562000       562000    2745.9707    1752.4487    993.52202    250.06815    1188.4795    26160.289   0.61981428 
  564000       564000    2675.2854    1708.4174    966.86797    243.78504   -459.25332     25754.38   0.62958304 
  566000       566000    2759.0232    1744.2029    1014.8203     248.8915    14.551154    26011.513    0.6233594 
  568000       568000    2813.4981    1772.4851    1041.0129    252.92728    273.68245    26068.899   0.62198719 
  570000       570000    2769.5997    1722.6385    1046.9611    245.81434    -388.2227    26458.272   0.61283372 
  572000       572000    2745.2642     1689.542    1055.7222     241.0916   -2378.2484    26104.565   0.62113738 
  574000       574000    2662.7874    1741.0011    921.78625    248.43463     19.99443    25251.032   0.64213299 
  576000       576000    2822.4709    1821.8387    1000.6322    259.96985   -109.21934    25697.288   0.63098178 
  578000       578000    2773.5305    1763.1306    1010.3999    251.59241    -412.3745    26268.068   0.61727117 
  580000       580000     2795.588    1790.2773    1005.3106    255.46616    171.15939    25723.144   0.63034756 
  582000       582000     2725.318    1746.6682    978.64985    249.24329   -574.19864    26305.959   0.61638204 
  584000       584000    2704.6911    1732.1128    972.57828     247.1663    830.84274    25503.025   0.63578815 
  586000       586000    2721.2301    1748.5634    972.66674    249.51373    1387.2706    25614.322   0.63302558 
  588000       588000    2822.8214    1822.9444    999.87698    260.12764   -1915.3515    25312.603   0.64057105 
  590000       590000    2688.0648    1689.2772    998.78755    241.05381     565.1755    25261.442   0.64186837 
  592000       592000    2753.4005     1783.067    970.33356    254.43727    634.44131    25478.694    0.6363953 
  594000       594000     2798.756    1791.6499    1007.1061    255.66202   -549.38275    25843.084   0.62742205 
  596000       596000    2689.2235    1667.3946    1021.8289    237.93124    916.62967    25877.685   0.62658312 
  598000       598000     2717.492    1741.2702    976.22174    248.47302    1400.2141    25541.529   0.63482969 
  600000       600000    2729.5198    1752.1424    977.37734    250.02444   -1518.7418    26145.677   0.62016068 
  602000       602000    2748.2536    1778.2673    969.98628    253.75237     1502.712    25955.968   0.62469336 
  604000       604000    2721.7696    1709.2596      1012.51    243.90522     847.7561    26120.732   0.62075294 
  606000       606000    2796.8418    1776.5165    1020.3253    253.50254   -160.73586     26247.92   0.61774499 
  608000       608000    2797.4952    1752.4567    1045.0385    250.06929   -2576.5478    25992.596   0.62381306 
  610000       610000    2734.0245    1753.0867    980.93785    250.15919   -905.48624    25809.669   0.62823436 
  612000       612000     2771.714    1786.3352    985.37881    254.90363    542.06528    26040.146   0.62267396 
  614000       614000    2711.7195    1734.8053     976.9142     247.5505   -669.70778    25922.417    0.6255019 
  616000       616000    2773.1516    1762.6426     1010.509    251.52279   -46.579896    26677.659   0.60779399 
  618000       618000     2745.496    1749.6069    995.88915    249.66263   -1261.0377    26267.871    0.6172758 
  620000       620000    2742.9426    1766.1953    976.74729    252.02975    332.90008    26320.197   0.61604862 
  622000       622000     2765.199     1734.762     1030.437    247.54432    601.62282    26428.129   0.61353268 
  624000       624000    2816.2324    1778.3651    1037.8673    253.76633    680.98759    26037.891   0.62272789 
  626000       626000    2795.2036    1795.3594     999.8442    256.19136   -1115.7038    25687.216    0.6312292 
  628000       628000    2711.2272    1721.0396    990.18759    245.58618   -1843.8347    25499.095   0.63588613 
  630000       630000    2803.6904      1819.35    984.34041    259.61472    1327.0437     25522.89    0.6352933 
  632000       632000    2716.7624    1769.6617    947.10068    252.52438    -112.7987    25109.345   0.64575644 
  634000       634000    2844.2006    1785.6331    1058.5675    254.80344   -662.21501    26040.245   0.62267159 
  636000       636000    2705.7278     1746.619    959.10887    249.23627   -123.12229    25036.268   0.64764129 
  638000       638000    2705.0167    1742.5025    962.51413    248.64887     1051.562      25016.4   0.64815566 
  640000       640000    2736.1512     1761.704    974.44724    251.38884    90.896502    24826.039   0.65312556 
  642000       642000    2861.3111    1812.9929    1048.3182    258.70759   -500.34501    25619.886    0.6328881 
  644000       644000    2712.9967    1745.0012    967.99551    249.00542   -1235.2811    25114.019   0.64563624 
  646000       646000    2770.9274    1781.8521    989.07529     254.2639   -287.49357    25227.529   0.64273123 
  648000       648000    2623.7615    1723.6635    900.09796    245.96061    768.53128     25127.78   0.64528268 
  650000       650000    2737.6837    1773.3409    964.34286    253.04939    241.02868    25263.786   0.64180882 
  652000       652000    2790.1669    1762.4428    1027.7241    251.49427    326.69122    25392.117   0.63856516 
  654000       654000    2722.9755    1782.7188    940.25674    254.38758    11.960867    24928.061   0.65045256 
  656000       656000    2742.9208    1758.8413    984.07943    250.98036   -720.70791    25096.834   0.64607834 
  658000       658000    2750.0341     1757.921    992.11303    250.84903   -1372.0671    25429.689   0.63762167 
  660000       660000     2688.797    1739.8156    948.98141    248.26545     391.2644    25756.318   0.62953568 
  662000       662000    2700.3015    1742.1885    958.11294    248.60406   -1112.7595    25814.256   0.62812274 
  664000       664000    2739.9951    1805.7332    934.26191    257.67166   -271.70199    24973.569   0.64926728 
  666000       666000    2778.7986    1763.1639    1015.6347    251.59718    723.74762    24967.492   0.64942529 
  668000       668000    2754.5354     1793.105    961.43044    255.86966   -560.46875    24991.221   0.64880866 
  670000       670000    2698.9843    1725.9163    973.06805    246.28207   -1659.0489    25240.974   0.64238889 
  672000       672000    2848.7101    1808.4116    1040.2985    258.05386   -284.27797    26056.277   0.62228847 
  674000       674000    2796.9493     1795.293    1001.6563    256.18188    -285.3083    25434.178   0.63750915 
  676000       676000     2753.963    1785.9726    967.99037    254.85189    -100.3992    25535.727   0.63497394 
  678000       678000    2823.6301    1782.9419    1040.6881    254.41943   -589.22792    25931.406   0.62528507 
  680000       680000    2700.0026    1771.4021    928.60051    252.77273   -608.69447    25448.644   0.63714676 
  682000       682000    2657.1632     1714.264    942.89924    244.61933    247.48689    25793.281   0.62863351 
  684000       684000    2701.2274    1739.9238    961.30362    248.28089   -409.15797    25625.703   0.63274445 
  686000       686000    2727.4889    1736.2609    991.22797    247.75821    500.75436    25835.044    0.6276173 
  688000       688000    2808.4364    1755.7383    1052.6981    250.53756    387.83699    26019.373   0.62317108 
  690000       690000     2794.739    1735.0668    1059.6723    247.58781   -313.36011    26374.282   0.61478531 
  692000       692000    2853.0527    1815.9009    1037.1518    259.12255    125.33487    25347.733   0.63968329 
  694000       694000    2710.8308    1752.7626    958.06818    250.11295    607.33397    25140.346   0.64496013 
  696000       696000    2763.0938    1721.2223    1041.8715    245.61225   -1337.8423    25890.978   0.62626144 
  698000       698000    2754.9324    1752.2765    1002.6559    250.04358    1443.9227    25281.152   0.64136796 
  700000       700000    2752.1203    1717.9958    1034.1245    245.15184    964.00092    25355.687   0.63948262 
  702000       702000     2691.863    1747.7966    944.06632    249.40432      709.922    25034.663   0.64768281 
  704000       704000    2670.2543    1706.3329    963.92136     243.4876    1748.2047    25025.831    0.6479114 
  706000       706000    2768.2189     1801.477    966.74186    257.06431   -1818.0284    25687.223   0.63122902 
  708000       708000    2767.2919    1772.8439    994.44793    252.97848   -571.24214    25361.456   0.63933715 
  710000       710000    2690.8006     1713.383    977.41769    244.49361   -487.65702     25633.86   0.63254309 
  712000       712000    2749.7241    1786.6323    963.09177    254.94603    534.94945    25658.965   0.63192419 
  714000       714000    2840.6598    1794.9365    1045.7233      256.131   -832.06751    25988.451   0.62391256 
  716000       716000     2807.468    1774.3142    1033.1538    253.18828    950.74247    25763.873   0.62935106 
  718000       718000    2725.8631    1768.0342    957.82891    252.29215   -475.81014    25483.732   0.63626948 
  720000       720000      2757.03    1794.2493    962.78071    256.03295   -417.95256    25497.353   0.63592957 
  722000       722000    2710.2685    1717.2723    992.99617     245.0486    672.36595    25563.708   0.63427892 
  724000       724000    2729.9358     1744.994     984.9418     249.0044     1107.127     26481.16   0.61230403 
  726000       726000    2796.4864    1759.2973    1037.1891    251.04543    835.55799      26077.2   0.62178918 
  728000       728000    2728.5881    1740.6688    987.91934     248.3872    329.65389    25961.992   0.62454842 
  730000       730000     2704.539    1733.7833    970.75569    247.40467   -375.52327    25987.435   0.62393694 
  732000       732000    2734.7203    1773.7324    960.98791    253.10525    930.19052     25245.47   0.64227447 
  734000       734000    2741.5332    1739.8081    1001.7252    248.26438    158.75486    25813.897   0.62813147 
  736000       736000    2785.1158     1801.164    983.95187    257.01964   -533.76632    26362.003   0.61507166 
  738000       738000    2825.9245     1782.357    1043.5675    254.33595     895.6791    26263.413   0.61738056 
  740000       740000    2812.3685    1744.9413    1067.4273    248.99687   -563.41251    26547.963   0.61076328 
  742000       742000    2781.8189    1749.7453    1032.0737    249.68238   -1912.7674    26086.617   0.62156473 
  744000       744000    2783.0444     1753.651    1029.3934    250.23972   -497.92346    25950.612   0.62482229 
  746000       746000    2794.1962    1761.7115    1032.4847    251.38991   -324.35425    25780.329   0.62894934 
  748000       748000    2755.5515    1777.9282     977.6233    253.70398    211.88218    25546.183   0.63471404 
  750000       750000    2799.1474     1807.977     991.1704    257.99185    463.14407    25479.937   0.63636425 
  752000       752000    2691.5631    1734.1943    957.36879    247.46331   -520.11226    25232.329   0.64260898 
  754000       754000    2742.5733    1722.1715    1020.4018     245.7477    380.09786    25777.765   0.62901191 
  756000       756000    2747.1493    1796.8582    950.29113    256.40522    482.11451    24984.209   0.64899075 
  758000       758000    2749.7624    1739.3481    1010.4143    248.19874    517.88133    25629.906   0.63264066 
  760000       760000    2747.7608    1764.6956    983.06519    251.81574    812.90254    24959.992   0.64962043 
  762000       762000    2705.4681    1728.9645    976.50358    246.71704    186.61047    25511.244   0.63558332 
  764000       764000    2710.6079    1731.0675    979.54042    247.01713   -1522.7324    25903.767   0.62595223 
  766000       766000    2723.3453    1716.2727    1007.0726    244.90597    438.80866    26465.019   0.61267747 
  768000       768000    2772.0104     1759.625    1012.3853    251.09219    1210.8616    25852.861   0.62718477 
  770000       770000    2756.7454     1777.369    979.37639    253.62419    1065.7613    25399.102   0.63838954 
  772000       772000    2741.3301    1728.1468    1013.1833    246.60036    46.902591    25759.546   0.62945677 
  774000       774000    2714.1084    1757.9211    956.18731    250.84905   -1941.8734     25887.68   0.62634122 
  776000       776000    2739.6625    1779.5355    960.12701    253.93334    341.34498    25349.345   0.63964259 
  778000       778000    2808.6962    1784.8961    1023.8001    254.69828   -265.94668     26462.13   0.61274437 
  780000       780000     2771.747    1768.2115    1003.5355    252.31744   -1672.4179     25849.51   0.62726607 
  782000       782000    2694.8924    1741.4786    953.41389    248.50275   -1819.6617    25425.602   0.63772417 
  784000       784000    2696.4536    1732.4091    964.04443    247.20858    628.81551     25183.27   0.64386082 
  786000       786000     2768.361    1708.4446    1059.9164    243.78892   -818.37844    25801.539   0.62843233 
  788000       788000    2706.9852    1744.6768    962.30837    248.95913     1246.363    25592.893   0.63355562 
  790000       790000    2632.2857    1689.4687    942.81696    241.08113    -1526.303    25494.349    0.6360045 
  792000       792000    2753.9294    1797.6844    956.24496    256.52313    838.01243    25529.489   0.63512909 
  794000       794000    2693.2861    1731.1188    962.16727    247.02446   -391.64384    25272.322   0.64159205 
  796000       796000    2764.6646     1738.119    1026.5456    248.02336   -360.55208    25932.343   0.62526248 
  798000       798000    2826.4545    1818.9511    1007.5034    259.55781    546.56641    25659.126   0.63192024 
  800000       800000    2690.8309     1726.058    964.77289    246.30229     354.7487    25195.781   0.64354111 
  802000       802000    2798.9495    1757.1144    1041.8351    250.73393   -71.600486    25684.851   0.63128733 
  804000       804000    2725.9915    1755.9088    970.08271    250.56189    344.64638    25738.683   0.62996701 
  806000       806000    2776.0487    1757.0853    1018.9633    250.72978   -1028.2639    25359.323   0.63939093 
  808000       808000    2755.0276    1747.4892    1007.5384    249.36044    -618.6445    25520.909   0.63534261 
  810000       810000    2755.8542    1736.8301    1019.0241    247.83943   -503.92969    25869.192   0.62678885 
  812000       812000     2782.929    1754.1079    1028.8211    250.30491    204.09611    25518.608    0.6353999 
  814000       814000    2724.7106    1737.1226    987.58796    247.88117    307.23333    25668.835   0.63168122 
  816000       816000    2705.6646    1755.6539    950.01067    250.52553    571.49615    25244.212   0.64230647 
  818000       818000    2805.4055    1754.3859    1051.0196    250.34458   -705.62146    26292.146   0.61670587 
  820000       820000    2709.3841    1740.5973    968.78682      248.377   -808.31184    25228.185   0.64271453 
  822000       822000    2726.9614    1717.3282    1009.6332    245.05658   -2154.7174    25012.616    0.6482537 
  824000       824000    2680.4301    1700.5663    979.86386    242.66471   -1782.0261    25131.476   0.64518777 
  826000       826000     2802.006    1804.5816    997.42442    257.50732    1954.2594    25299.832    0.6408944 
  828000       828000    2782.8534    1751.8334      1031.02    249.98035    166.30808    26011.067   0.62337007 
  830000       830000    2743.3577     1768.561    974.79664    252.36732   -1643.2478    25964.625   0.62448508 
  832000       832000    2732.6247    1735.8144    996.81032    247.69449    59.351872    26154.092   0.61996116 
  834000       834000    2684.9179    1738.5865     946.3314    248.09006    169.16154    25786.329     0.628803 
  836000       836000    2882.3453    1830.1671    1052.1783    261.15829    1281.0325    26175.126   0.61946295 
  838000       838000    2816.2204    1823.0515    993.16891    260.14291   -385.30703    25849.903   0.62725654 
  840000       840000    2689.5284    1707.6929    981.83546    243.68166   -4.3014183     25652.34    0.6320874 
  842000       842000    2728.8553    1741.7565    987.09885    248.54241    650.08328     25186.06    0.6437895 
  844000       844000    2782.3074    1733.7995     1048.508    247.40697    398.68026    25708.225   0.63071337 
  846000       846000    2665.7712    1704.3635    961.40766    243.20657    1493.0296    25420.691   0.63784737 
  848000       848000    2732.4302    1800.5772    931.85296    256.93592    261.25408    25065.478   0.64688656 
  850000       850000    2793.3789    1772.2321    1021.1468    252.89117   -505.40642    25599.279   0.63339755 
  852000       852000    2720.6275    1737.0735    983.55405    247.87416    116.34425    25435.474   0.63747667 
  854000       854000    2738.9718    1747.5507    991.42111    249.36923    22.293085    25447.764    0.6371688 
  856000       856000    2766.6854     1775.425    991.26047    253.34678   -300.84555    25529.112   0.63513847 
  858000       858000    2780.0591    1777.7818    1002.2773     253.6831    95.390433    25703.895   0.63081961 
  860000       860000     2719.565    1750.3469     969.2181    249.76823   -59.220682    25282.838   0.64132519 
  862000       862000    2754.6371    1747.9662    1006.6709    249.42851    1962.3635    25694.506   0.63105012 
  864000       864000     2741.582    1764.9991     976.5829    251.85904    784.88812    24806.379    0.6536432 
  866000       866000    2727.9822    1726.0436    1001.9386    246.30023    959.89916    25289.255   0.64116246 
  868000       868000    2732.8407    1804.4496    928.39108    257.48849    1361.2138    24936.379   0.65023559 
  870000       870000    2736.3928    1704.7799    1031.6129    243.26598    1299.0779    25385.407   0.63873395 
  872000       872000    2739.2282    1753.4871    985.74108    250.21633    419.85521    25619.558   0.63289621 
  874000       874000    2744.7624    1764.5737    980.18867    251.79835    1681.1228    25051.727   0.64724164 
  876000       876000    2785.6096    1831.9269    953.68266    261.40941    1967.4139      25029.6   0.64781382 
  878000       878000    2740.3121     1775.593    964.71905    253.37076    396.61295    25547.337   0.63468535 
  880000       880000    2792.0178    1758.8379    1033.1799    250.97987   -195.10962    26794.635   0.60514057 
  882000       882000    2819.0692    1794.0449    1025.0243    256.00378    429.45805    26214.222   0.61853909 
  884000       884000    2775.1783    1790.7208     984.4575    255.52945    819.87907    25638.705   0.63242355 
  886000       886000     2834.571    1802.4059    1032.1652    257.19686     1774.662    26235.921    0.6180275 
  888000       888000     2706.184    1727.0272    979.15688    246.44059    269.34318    25699.302   0.63093234 
  890000       890000    2842.6725     1802.701    1039.9715    257.23898    212.65765    25648.125   0.63219127 
  892000       892000    2789.1513    1759.9869    1029.1645    251.14382   -1.1782038    26141.109   0.62026904 
  894000       894000    2730.2882    1697.9085    1032.3797    242.28547    250.17799    26320.349   0.61604506 
  896000       896000    2750.0192     1757.278    992.74118    250.75728   -254.68967    25464.827   0.63674184 
  898000       898000     2763.558    1764.4349    999.12311    251.77854   -174.85554     25911.38   0.62576834 
  900000       900000      2734.91    1783.1793    951.73067     254.4533    637.41149    25307.408   0.64070255 
  902000       902000    2575.6596    1703.1626    872.49707     243.0352    472.87375    25095.644   0.64610897 
  904000       904000    2826.9057    1775.1954    1051.7103    253.31403    2000.4951    26051.988   0.62239093 
  906000       906000    2767.7262    1732.9035    1034.8227    247.27912   -1222.0982    25748.242   0.62973313 
  908000       908000    2769.2763    1700.3155    1068.9608    242.62893   -1440.1423    26020.576   0.62314228 
  910000       910000    2724.8712    1723.9022     1000.969    245.99466    -632.9371    25893.834   0.62619235 
  912000       912000    2751.8712    1748.3304    1003.5408    249.48048   -2020.3008    26161.821     0.619778 
  914000       914000    2789.8725    1797.4266    992.44591    256.48633    -1497.528    26181.145   0.61932053 
  916000       916000    2738.5334    1757.3452    981.18816    250.76687    613.48239     25864.11   0.62691199 
  918000       918000    2666.2931    1707.2415    959.05159    243.61724    609.87806    26173.341   0.61950521 
  920000       920000     2719.993    1725.6243     994.3687    246.24041   -527.15712    25643.878   0.63229597 
  922000       922000     2734.919    1713.0607    1021.8583    244.44762   -854.98915    26159.174   0.61984072 
  924000       924000     2775.995    1785.2558    990.73921     254.7496    2239.4203     25509.67   0.63562252 
  926000       926000     2707.047    1713.8667    993.18028    244.56263    -468.5798    25934.171    0.6252184 
  928000       928000    2743.6685    1715.6339    1028.0346    244.81481   -927.00189    25729.898   0.63018208 
  930000       930000     2692.197    1731.2815    960.91549    247.04767    354.41658    25495.682   0.63597126 
  932000       932000     2745.716    1747.3512    998.36481    249.34076    1026.2526    25589.949   0.63362851 
  934000       934000     2738.111    1743.5973    994.51379    248.80508   -301.36098     24863.33     0.652146 
  936000       936000    2768.4818     1778.998    989.48384    253.85663    203.98217    24877.376   0.65177777 
  938000       938000    2761.1805     1757.495    1003.6856    250.78823   -336.23189    25357.029   0.63944878 
  940000       940000    2728.8218    1742.3934    986.42833     248.6333   -820.05848    25989.241   0.62389359 
  942000       942000      2759.67    1795.1788    964.49119    256.16558    1207.6929    25326.744    0.6402134 
  944000       944000    2716.8502     1746.801    970.04911    249.26225   -680.47928    25222.221   0.64286651 
  946000       946000    2748.1233    1764.7063    983.41695    251.81727    1397.9018    25993.647   0.62378785 
  948000       948000    2786.7218    1784.8781    1001.8437    254.69571    262.32001    26126.879   0.62060689 
  950000       950000    2796.6045    1767.3433    1029.2612    252.19355   -1869.6432    26459.721   0.61280014 
  952000       952000    2754.0322    1721.0951    1032.9371     245.5941    -913.2762    26002.285   0.62358063 
  954000       954000    2785.6853    1750.8899    1034.7954    249.84571    1427.7037    25880.092   0.62652486 
  956000       956000    2716.3323    1741.1393    975.19303    248.45433   -1722.1327    25642.499   0.63232998 
  958000       958000    2767.3691    1815.9703    951.39885    259.13245    577.44371    24977.018    0.6491776 
  960000       960000    2696.7922    1723.5786    973.21359    245.94849    515.12728    25592.304    0.6335702 
  962000       962000    2715.9259    1776.0449    939.88096    253.43524    1199.1189    24898.793   0.65121714 
  964000       964000    2670.6436    1724.4238    946.21977     246.0691    2283.1125    24761.319   0.65483269 
  966000       966000    2680.8949    1731.6456    949.24929    247.09963    1232.5906    24957.761   0.64967852 
  968000       968000     2773.541    1771.3844    1002.1566    252.77021   -952.22707    25454.388   0.63700298 
  970000       970000    2735.6705     1734.574    1001.0965     247.5175   -1389.3693    25279.328   0.64141423 
  972000       972000    2678.3741    1731.2268    947.14724    247.03987   -2049.2747     25621.28   0.63285367 
  974000       974000    2800.2091    1794.5925    1005.6166    256.08193   -2368.2073     25879.82   0.62653144 
  976000       976000    2740.6011    1751.6269    988.97422    249.95088   -645.66756    25265.776   0.64175827 
  978000       978000    2777.0852    1769.5814    1007.5038    252.51293    1204.4318    25194.324   0.64357833 
  980000       980000    2724.6988    1768.9971    955.70176    252.42954   -1856.8542    25402.394    0.6383068 
  982000       982000    2723.7109    1761.4153    962.29557    251.34765    310.65947    25273.061   0.64157329 
  984000       984000    2722.7945    1760.1328    962.66167    251.16465    2072.6661    25112.268   0.64568125 
  986000       986000    2771.5867    1772.4952    999.09154    252.92871    1381.4138     25529.68   0.63512434 
  988000       988000    2761.4281    1774.7574    986.67071    253.25152    1378.4323    25373.397   0.63903628 
  990000       990000    2724.7421    1742.1038    982.63827    248.59197   -1530.5364    25523.979   0.63526619 
  992000       992000    2707.2876    1774.1132    933.17449    253.15959    752.33909    25441.239   0.63733219 
  994000       994000    2735.2406     1762.291    972.94962    251.47261    256.08597     25422.18      0.63781 
  996000       996000    2755.9082    1793.3653    962.54285    255.90681   -224.64432     25081.85   0.64646432 
  998000       998000    2769.8564    1756.8256    1013.0308    250.69272    401.60744    25472.518    0.6365496 
 1000000      1000000    2748.5624    1753.1187    995.44374    250.16375    -1522.577    25738.407   0.62997376 
 1002000      1002000    2829.0627    1803.4725    1025.5901    257.34907    30.440421    25653.499   0.63205885 
 1004000      1004000    2815.2288    1802.2319    1012.9969    257.17203    494.02646    25968.259   0.62439769 
 1006000      1006000     2705.394    1708.0265    997.36754    243.72926   -86.450586    25860.535   0.62699866 
 1008000      1008000    2770.1029    1743.0103    1027.0926    248.72133   -209.73719    26209.846   0.61864237 
 1010000      1010000    2752.1486    1760.9704    991.17826    251.28416   -51.888074    25590.619    0.6336119 
 1012000      1012000    2740.1875    1767.7081    972.47935    252.24562    801.49948    25676.283   0.63149797 
 1014000      1014000    2774.9718    1760.8743    1014.0976    251.27045   -25.583639    25865.853   0.62686975 
 1016000      1016000    2712.6324    1744.2822     968.3502    248.90282    249.44821    25655.293   0.63201463 
 1018000      1018000    2740.7172    1759.0194    981.69783    251.00577    28.360243    25352.316   0.63956763 
 1020000      1020000    2661.9623    1715.2982    946.66411    244.76691    630.88125    25388.899   0.63864609 
 1022000      1022000    2730.9756    1757.6071     973.3685    250.80423   -170.61219    24998.508   0.64861954 
 1024000      1024000    2726.3224     1712.052    1014.2704    244.30369   -793.26079    25477.906   0.63641499 
 1026000      1026000    2769.6032    1767.0559    1002.5472    252.15255   -89.688165    24940.107    0.6501384 
 1028000      1028000    2735.0124    1797.4282    937.58423    256.48656   -866.72159    25154.715   0.64459172 
 1030000      1030000    2676.3687    1754.6567    921.71203    250.38322   -791.97047     25129.04   0.64525032 
 1032000      1032000    2736.8598    1743.7349    993.12486    248.82473   -887.24176    25125.662   0.64533706 
 1034000      1034000    2739.9312    1751.7963    988.13497    249.97505    1863.3451    25338.938   0.63990531 
 1036000      1036000    2699.0029    1780.6921    918.31071    254.09839   -577.11335    24780.931   0.65431444 
 1038000      1038000    2678.0318    1715.1848    962.84699    244.75073    843.84526    25247.156   0.64223158 
 1040000      1040000    2692.2988    1717.4298    974.86894    245.07108   -516.30758     25291.64     0.641102 
 1042000      1042000    2679.8801    1745.9981    933.88203    249.14767    1080.5386    25284.278   0.64128866 
 1044000      1044000    2744.4865     1758.467     986.0195    250.92694   -1067.7428    25222.794   0.64285189 
 1046000      1046000    2704.3725    1763.5796    940.79294    251.65649   -1126.5467     25300.37   0.64088078 
 1048000      1048000    2706.9129     1738.811    968.10193     248.1221   -557.40594    26080.941       0.6217 
 1050000      1050000    2755.1779    1765.9573    989.22064    251.99578   -262.02288    25384.702   0.63875167 
 1052000      1052000    2731.5229     1737.405    994.11788    247.92147   -115.90358      25240.7   0.64239584 
 1054000      1054000    2751.7557    1743.8965    1007.8592    248.84779    607.96201    25651.644   0.63210454 
 1056000      1056000    2734.5833    1740.4949     994.0884    248.36239   -497.35391    26463.565   0.61271114 
 1058000      1058000    2781.4244    1777.5619    1003.8624    253.65172    79.565254    26201.285   0.61884449 
 1060000      1060000    2688.5638    1711.6769    976.88694    244.25016   -589.63723    26078.661   0.62175436 
 1062000      1062000    2750.8482    1724.3804    1026.4678     246.0629   -1013.1262    26041.808   0.62263422 
 1064000      1064000    2696.9842    1744.6279    952.35631    248.95215    282.93145     25755.37   0.62955884 
 1066000      1066000    2728.6772     1755.435    973.24216    250.49429    867.75924    25397.374   0.63843296 
 1068000      1068000    2779.3133    1770.0311    1009.2822    252.57709    373.79608    25575.657   0.63398257 
 1070000      1070000    2748.1241    1762.3823     985.7418    251.48563     471.9694     25730.48   0.63016783 
 1072000      1072000     2744.702    1790.0231    954.67891    255.42988    410.83524    25305.963   0.64073914 
 1074000      1074000    2716.9491     1733.356    983.59309    247.34369   -1054.4956    25199.207   0.64345362 
 1076000      1076000    2756.0198    1744.1659    1011.8539    248.88623   -757.19798    25161.581   0.64441583 
 1078000      1078000    2707.3767    1764.6793    942.69735    251.81342    184.94155    24912.524   0.65085821 
 1080000      1080000    2635.8967    1751.6984    884.19829    249.96109   -266.65023    24941.583   0.65009991 
 1082000      1082000    2793.1639    1810.8876    982.27627    258.40717    823.96391    25268.442   0.64169056 
 1084000      1084000    2617.3689    1707.1784    910.19056    243.60824    607.93898    24812.824   0.65347343 
 1086000      1086000    2754.0604    1774.4247    979.63577    253.20404   -717.10261    25365.365   0.63923862 
 1088000      1088000    2631.0159    1706.3598     924.6562    243.49142    -477.7173    25039.194    0.6475656 
 1090000      1090000    2747.3974     1707.861    1039.5364    243.70565    -605.1415    25614.773   0.63301443 
 1092000      1092000    2713.0329    1760.5016    952.53129    251.21727   -436.15853    24840.382   0.65274845 
 1094000      1094000    2725.6163     1779.576    946.04031    253.93912   -631.30264    25412.499   0.63805298 
 1096000      1096000    2796.9559    1761.8576    1035.0983    251.41076   -92.727982    26020.582   0.62314214 
 1098000      1098000    2750.8063    1774.9093    975.89697     253.2732    404.48877    25842.412   0.62743837 
 1100000      1100000    2692.7297    1740.0092    952.72052    248.29308     935.5478    25243.637   0.64232112 
 1102000      1102000    2798.8516     1801.366    997.48562    257.04847   -489.30452     25343.51   0.63978986 
 1104000      1104000    2642.3851    1705.3515     937.0336    243.34754   -575.24349    25589.137   0.63364861 
 1106000      1106000    2748.1448    1780.2779    967.86689    254.03928   -687.69583    25568.486   0.63416037 
 1108000      1108000    2821.6456    1777.7677    1043.8779    253.68109    1089.0606    25634.727   0.63252169 
 1110000      1110000    2713.9138    1783.4343    930.47949    254.48968    224.41771    25808.996   0.62825073 
 1112000      1112000    2726.3148    1738.7173    987.59747    248.10873   -582.90844    25681.842   0.63136128 
 1114000      1114000    2736.9762    1741.3235    995.65269    248.48062    117.71282    26231.774   0.61812522 
 1116000      1116000    2731.4254    1736.4382    994.98727     247.7835   -2094.4146    26035.814   0.62277756 
 1118000      1118000    2781.7365    1765.9951    1015.7414    252.00118    662.21791     26700.79   0.60726746 
 1120000      1120000    2717.1504    1719.7763    997.37414    245.40592   -737.46353    26090.411   0.62147434 
 1122000      1122000    2710.5958    1744.4781    966.11775    248.93077   -1976.6898    25923.612   0.62547307 
 1124000      1124000    2802.7459    1764.3318    1038.4141    251.76382    860.15365    26259.238   0.61747872 
 1126000      1126000    2730.6122    1756.3145    974.29776    250.61978    50.947764    25837.874   0.62754857 
 1128000      1128000    2778.5435    1764.4665     1014.077    251.78304   -447.30498    25707.262   0.63073699 
 1130000      1130000    2730.9655    1739.8092    991.15636    248.26454   -841.70852     25567.84    0.6341764 
 1132000      1132000     2768.325    1743.2647    1025.0602    248.75763    178.27628    25828.264   0.62778206 
 1134000      1134000    2709.3752    1769.8967    939.47856    252.55792   -972.86955    25672.501   0.63159101 
 1136000      1136000    2750.2765    1744.7016    1005.5749    248.96266    -12.63962    25783.597   0.62886962 
 1138000      1138000    2773.6087    1794.3458    979.26297    256.04671    202.52325    25309.763   0.64064295 
 1140000      1140000     2789.415    1727.6554    1061.7596    246.53024    693.84037    26149.273   0.62007541 
 1142000      1142000    2694.2609    1715.1936    979.06738    244.75198   -2427.1777    25598.306   0.63342163 
 1144000      1144000    2731.5729    1746.7305    984.84238    249.25218   -364.16567    25376.765   0.63895144 
 1146000      1146000    2788.9313     1754.452    1034.4792    250.35402    115.59814    25898.276   0.62608494 
 1148000      1148000    2700.1932    1702.2892    997.90398    242.91057    1494.3117    25998.465   0.62367225 
 1150000      1150000    2692.7437    1756.7129    936.03082    250.67664    65.368406    25204.218    0.6433257 
 1152000      1152000    2743.2602    1760.8282    982.43203    251.26387   -200.58779    24819.678   0.65329296 
 1154000      1154000    2660.7467    1719.3599    941.38682     245.3465   -777.65789    25171.543   0.64416078 
 1156000      1156000    2774.3546    1777.7245     996.6301    253.67491   -89.361653    25583.661   0.63378423 
 1158000      1158000     2725.713    1679.9679    1045.7451     239.7254   -561.20856    26228.035   0.61821334 
 1160000      1160000    2712.8546    1743.5816    969.27303    248.80284   -330.46539    25199.476   0.64344674 
 1162000      1162000    2687.9211    1755.1399    932.78121    250.45217    1111.3157    24768.756   0.65463606 
 1164000      1164000    2705.1216    1719.4697    985.65195    245.36216   -787.08103    25207.844   0.64323314 
 1166000      1166000    2814.9817    1802.0833    1012.8984    257.15083   -1325.8528    25891.152   0.62625723 
 1168000      1168000    2695.2706    1659.3157    1035.9549     236.7784   -470.57074    25852.035   0.62720483 
 1170000      1170000    2724.7528    1740.9528    983.80003    248.42773   -345.52189    25553.926   0.63452171 
 1172000      1172000      2789.19    1824.7671     964.4229    260.38772    349.70423    24870.745   0.65195155 
 1174000      1174000     2691.022    1751.3631    939.65888    249.91325    -651.7431    25223.696   0.64282891 
 1176000      1176000    2753.2748    1745.2249    1008.0499    249.03734       75.939    25425.129   0.63773603 
 1178000      1178000    2684.5578    1762.6801     921.8777    251.52814   -900.20106    24969.484   0.64937349 
 1180000      1180000    2720.7322    1750.2114     970.5208    249.74889    -103.9243    25613.333   0.63305002 
 1182000      1182000    2786.3349    1768.6071    1017.7278     252.3739   -175.40063    25328.312   0.64017377 
 1184000      1184000    2810.0913    1772.0334    1038.0579    252.86282    768.63105    25235.511   0.64252795 
 1186000      1186000     2821.248    1802.1805    1019.0675     257.1647   -815.92808    25440.641   0.63734719 
 1188000      1188000    2772.7509    1783.5728    989.17809    254.50945    740.07095    25605.848   0.63323506 
 1190000      1190000    2736.4064    1729.3469    1007.0595     246.7716     412.2714     25187.05   0.64376419 
 1192000      1192000    2769.5466    1761.6083    1007.9382     251.3752    -105.1401    25694.523   0.63104969 
 1194000      1194000    2662.6343    1757.1318     905.5025    250.73642    421.23617    25383.262   0.63878791 
 1196000      1196000     2837.585    1777.7787    1059.8063    253.68264   -605.42894    25799.063   0.62849262 
 1198000      1198000    2714.0258    1737.9843    976.04148    248.00414    31.050257    26267.295   0.61728933 
 1200000      1200000     2776.548    1763.2539    1013.2942    251.61001    1105.5302     25759.88   0.62944862 
 1202000      1202000    2729.2204    1782.3489    946.87152     254.3348    -540.8661    25372.776    0.6390519 
 1204000      1204000    2807.5311    1782.5488    1024.9823    254.36333    1423.5296    25558.026   0.63441993 
 1206000      1206000    2720.4314    1710.7622    1009.6692    244.11963     -64.0092     25732.76   0.63011199 
 1208000      1208000    2799.7259    1773.2133    1026.5126    253.03119   -1810.6334    26353.108   0.61527926 
 1210000      1210000    2740.6173    1730.5906    1010.0267    246.94908    396.44886    25595.359   0.63349457 
 1212000      1212000    2735.8907    1744.9042    990.98652    248.99158   -637.90974    25481.886   0.63631557 
 1214000      1214000    2766.1441    1752.8589    1013.2852    250.12668    -298.3023    25635.784   0.63249562 
 1216000      1216000    2737.3228    1752.8312    984.49161    250.12273    141.75893    25475.284   0.63648048 
 1218000      1218000    2770.7217    1765.0975    1005.6242    251.87309   -107.15012    25703.434   0.63083093 
 1220000      1220000     2671.281    1700.0358    971.24512    242.58902    1073.6687    25941.635   0.62503851 
 1222000      1222000    2858.7733    1815.7608    1043.0125    259.10256    1031.2645     26227.36   0.61822923 
 1224000      1224000    2777.1202    1736.1061    1041.0141    247.73612    516.92471    26435.951   0.61335114 
 1226000      1226000    2834.5207    1826.8823    1007.6384    260.68956    98.851966    26076.763   0.62179961 
 1228000      1228000      2755.51    1802.8952    952.61475    257.26669    358.70276    25617.006   0.63295924 
 1230000      1230000    2741.9889    1734.7805    1007.2085    247.54696    1545.9266     25687.15   0.63123082 
 1232000      1232000    2730.8081    1729.1283    1001.6798    246.74041     1485.763    26367.504   0.61494335 
 1234000      1234000    2693.1727    1754.1268    939.04599     250.3076   -305.31829    25627.166    0.6327083 
 1236000      1236000    2646.2885    1722.9705    923.31807    245.86171    182.34295    25832.765   0.62767268 
 1238000      1238000    2704.3581    1759.0462    945.31192    251.00959    -126.2098     25130.15   0.64522181 
 1240000      1240000    2726.1475    1734.6806    991.46689    247.53271    1667.2398    25715.599   0.63053251 
 1242000      1242000    2781.3028    1775.1093    1006.1935    253.30174    129.66639    25491.483   0.63607601 
 1244000      1244000    2731.4821    1750.0131    981.46894     249.7206    769.54719    25626.697    0.6327199 
 1246000      1246000    2700.4051    1728.5591      971.846    246.65919    153.19222     25526.62   0.63520047 
 1248000      1248000    2756.0297     1754.619    1001.4107    250.37784   -262.72878    26006.614   0.62347682 
 1250000      1250000    2786.4151    1767.3877    1019.0273     252.1999   -96.295596    25498.368   0.63590427 
 1252000      1252000    2733.9615    1714.2073    1019.7543    244.61123    592.63204    25428.051   0.63766275 
 1254000      1254000    2788.0185    1796.5903     991.4282      256.367   -705.52183    25719.163   0.63044512 
 1256000      1256000    2721.1946     1732.926     988.2686    247.28233    351.81613    25654.207   0.63204139 
 1258000      1258000    2833.1467    1799.5068    1033.6399    256.78317    -671.7283    25671.204   0.63162293 
 1260000      1260000     2750.644    1776.7405    973.90346     253.5345     1254.568    25303.809   0.64079368 
 1262000      1262000    2671.9366    1739.4913    932.44537    248.21917    2750.5678    25305.316   0.64075553 
 1264000      1264000    2802.3545     1764.349    1038.0055    251.76628   -1846.3566    25488.689   0.63614575 
 1266000      1266000    2738.1987    1800.3823    937.81636    256.90811   -1844.8701    25610.943   0.63310908 
 1268000      1268000    2729.9057    1727.4019    1002.5038    246.49406    243.14983    25822.855   0.62791356 
 1270000      1270000    2797.1855    1770.8925     1026.293    252.70001    508.33492     26465.22   0.61267281 
 1272000      1272000    2769.4239    1725.6592    1043.7647    246.24539    505.32685    25847.788   0.62730787 
 1274000      1274000    2747.1155    1789.0762    958.03929    255.29477    657.34343    25698.366   0.63095533 
 1276000      1276000    2826.4213    1783.8808    1042.5405     254.5534   -1102.8585     25467.39   0.63667777 
 1278000      1278000    2760.3387    1758.4735    1001.8652    250.92786   -1176.9388    25598.591   0.63341458 
 1280000      1280000    2832.1959    1786.5591    1045.6368    254.93558   -793.76544    25538.953   0.63489371 
 1282000      1282000    2725.6955    1738.1363    987.55917    248.02582   -803.10274    26220.102   0.61840039 
 1284000      1284000    2766.8961    1751.8366    1015.0595    249.98081   -815.51047    25535.762   0.63497306 
 1286000      1286000    2686.5159    1737.9406    948.57535    247.99789    1797.7904    25391.859   0.63857163 
 1288000      1288000     2809.147    1762.8702    1046.2767    251.55527    570.74081    25696.335    0.6310052 
 1290000      1290000    2711.9733     1786.509    925.46428    254.92843   -402.63786    25228.086   0.64271706 
 1292000      1292000    2666.2201    1732.6548    933.56533    247.24363   -304.47102    25424.672    0.6377475 
 1294000      1294000     2731.609    1753.2592    978.34978    250.18381   -600.84728    25981.451   0.62408066 
 1296000      1296000     2721.199    1727.4294    993.76952    246.49799   -50.424754    25666.681   0.63173423 
 1298000      1298000    2751.3598    1807.1313     944.2285    257.87116    114.10107    25388.407   0.63865847 
 1300000      1300000    2689.6336    1695.7625    993.87109    241.97924   -96.866124    25775.134    0.6290761 
 1302000      1302000     2846.069    1837.7487    1008.3203    262.24015   -75.466026    25770.039   0.62920047 
 1304000      1304000    2723.4964    1744.2525    979.24387    248.89859    756.79387    25801.409   0.62843548 
 1306000      1306000    2751.8809    1746.4345    1005.4464    249.20995    165.62758    25686.207     0.631254 
 1308000      1308000    2728.4308    1727.7434    1000.6874    246.54279   -226.22717    26393.849   0.61432952 
 1310000      1310000    2789.8015    1747.1105     1042.691     249.3064   -374.86443    26394.548   0.61431326 
 1312000      1312000    2740.6999    1753.1728    987.52713    250.17147    56.412751    26307.678   0.61634178 
 1314000      1314000    2723.3443    1755.6153    967.72904    250.52001    1663.1889    26165.288   0.61969587 
 1316000      1316000    2799.7648    1780.4912    1019.2736    254.06972    568.63278    25730.861    0.6301585 
 1318000      1318000     2704.175    1766.9827    937.19232     252.1421    665.31093    25809.057   0.62824927 
 1320000      1320000    2736.8225    1742.0361     994.7864    248.58231   -761.23446     25538.59   0.63490275 
 1322000      1322000    2774.6638    1757.7824    1016.8815    250.82925    725.77616    25542.082   0.63481594 
 1324000      1324000    2700.3419    1768.1402    932.20168    252.30727    751.75754    25367.777   0.63917783 
 1326000      1326000    2666.9803    1722.3043    944.67604    245.76665    98.728333    25036.316   0.64764006 
 1328000      1328000    2734.5375    1772.5301    962.00747    252.93369   -124.91021    25728.225   0.63022308 
 1330000      1330000    2777.7492     1782.125    995.62425    254.30285   -42.598955    25705.766   0.63077369 
 1332000      1332000    2714.7307    1725.4595    989.27115     246.2169   -931.24559    25324.071   0.64028098 
 1334000      1334000    2720.8498    1737.5497    983.30007    247.94212   -658.37756    25437.382   0.63742885 
 1336000      1336000    2773.4631    1789.3702    984.09288    255.33671    944.23009    25505.926   0.63571582 
 1338000      1338000    2777.5482    1750.5326    1027.0156    249.79474    1186.1013     26003.62    0.6235486 
 1340000      1340000    2696.7776    1697.8904    998.88721    242.28288    766.99582    25574.767   0.63400463 
 1342000      1342000    2753.8019     1767.646     986.1559    252.23675    153.74384     25454.21   0.63700744 
 1344000      1344000    2728.0571    1745.8766    982.18047    249.13033    549.47211    25681.187    0.6313774 
 1346000      1346000    2722.0206    1741.8719    980.14869    248.55888    360.58337     24860.14   0.65222966 
 1348000      1348000    2754.0536    1763.1671    990.88647    251.59763   -192.09094    25761.786   0.62940204 
 1350000      1350000     2854.715    1805.9159    1048.7991    257.69773    1926.9527    25517.389   0.63543026 
 1352000      1352000    2669.5575    1718.0923     951.4652    245.16561    629.42363    25459.843   0.63686649 
 1354000      1354000     2821.149    1741.2148    1079.9342    248.46511   -1059.7506    26332.197   0.61576787 
 1356000      1356000    2746.2555    1733.1579    1013.0976    247.31543   -1027.8731    25867.751   0.62682377 
 1358000      1358000    2762.3949    1764.6791    997.71577    251.81339   -322.01631    26027.376   0.62297947 
[...]
 4682000      4682000    2697.0664    1746.9565    950.10994    249.28443   -58.020102     25315.78   0.64049068 
 4684000      4684000     2719.621    1771.8663    947.75461    252.83898     -479.598    25330.858   0.64010941 
 4686000      4686000    2794.9801    1780.0275    1014.9526    254.00354    2358.8225    25518.625   0.63539947 
 4688000      4688000    2762.4091    1756.1734    1006.2357    250.59965    1016.9552    25526.851   0.63519473 
 4690000      4690000    2773.7691    1751.5095    1022.2596    249.93413   -1238.6574    26178.525   0.61938253 
 4692000      4692000    2642.5018     1681.392    961.10976    239.92861    1165.7798    25700.233    0.6309095 
 4694000      4694000    2752.0585    1747.1459    1004.9126    249.31146    205.14518    25976.066   0.62421003 
 4696000      4696000      2693.79    1744.6251     949.1649    248.95176    1439.4701     25292.99   0.64106779 
 4698000      4698000    2708.4527    1709.6564    998.79628    243.96185     406.0379    25503.899   0.63576635 
 4700000      4700000    2788.4648    1814.5842    973.88052    258.93467   -413.62614      25320.3   0.64037635 
 4702000      4702000    2738.6464     1726.357    1012.2894    246.34496   -719.84767    25871.796   0.62672575 
 4704000      4704000    2772.3664    1748.0019    1024.3645    249.43361    476.75563     25761.75   0.62940292 
 4706000      4706000    2769.2842    1767.4485    1001.8357    252.20857    -1378.273    26073.531   0.62187669 
 4708000      4708000    2750.0611    1766.5797    983.48144    252.08459   -160.49836    25625.266   0.63275523 
 4710000      4710000    2820.7753    1859.5507    961.22462    265.35122    1106.2341    24995.003    0.6487105 
 4712000      4712000    2743.9548    1759.7257    984.22905    251.10656   -618.72012    25959.713   0.62460325 
 4714000      4714000    2717.3892    1765.7333    951.65591    251.96382   -256.97163    25616.636   0.63296839 
 4716000      4716000    2817.5739    1792.8866    1024.6873    255.83849    388.07484     25391.45   0.63858193 
 4718000      4718000    2732.4774     1745.492     986.9854    249.07546   -284.75627    25205.599   0.64329045 
 4720000      4720000    2767.7492    1700.1533    1067.5959    242.60579   -480.26855    25616.682   0.63296725 
 4722000      4722000    2670.4006    1698.5693    971.83123    242.37976    -2069.458    25491.883   0.63606602 
 4724000      4724000    2750.6326    1734.8626    1015.7701    247.55868   -1005.3999    25833.867   0.62764591 
 4726000      4726000    2787.5393    1774.9728    1012.5665    253.28226     1530.886    25269.086   0.64167422 
 4728000      4728000    2772.1168    1768.5788     1003.538    252.36986    821.73778    25967.602   0.62441348 
 4730000      4730000    2752.5383    1752.2821    1000.2563    250.04437    1193.0406    25800.272   0.62846318 
 4732000      4732000    2691.9789    1729.8996    962.07934    246.85047   -375.92314    25628.862   0.63266644 
 4734000      4734000    2791.4082    1807.8354    983.57284    257.97163    809.56714    25621.009   0.63286035 
 4736000      4736000    2766.6844     1757.262    1009.4225    250.75499   -16.134756     25454.52   0.63699968 
 4738000      4738000    2706.4168     1748.847    957.56982     249.5542   -337.75269    25849.506   0.62726618 
 4740000      4740000    2672.9256    1720.8767    952.04889    245.56294    154.32269    25278.963   0.64142349 
 4742000      4742000    2781.9271    1762.0245    1019.9026    251.43459   -293.17069    25982.019   0.62406701 
 4744000      4744000    2690.9061    1714.2004    976.70572    244.61025    279.67075    25484.579   0.63624834 
 4746000      4746000    2832.7416    1802.9089    1029.8327    257.26865    32.425148    25825.355   0.62785279 
 4748000      4748000    2783.8897      1728.41    1055.4797    246.63791    718.28117    26145.453   0.62016599 
 4750000      4750000    2843.6938    1796.8371    1046.8567    256.40222    1153.1102    26559.263   0.61050341 
 4752000      4752000     2693.846    1713.0016    980.84436     244.4392   -439.79137    25288.628   0.64117836 
 4754000      4754000    2749.1239    1735.2877    1013.8362    247.61934    -616.1663    25536.145   0.63496354 
 4756000      4756000    2676.8973    1779.1885    897.70885    253.88382    1268.2004    25872.681   0.62670432 
 4758000      4758000    2746.1451     1758.218    987.92712    250.89141   -472.92469    24692.914    0.6566467 
 4760000      4760000    2700.0152    1708.5728    991.44246    243.80721     1392.534    25554.036   0.63451898 
 4762000      4762000    2787.2172    1782.6037    1004.6135    254.37116    666.78544    25408.425    0.6381553 
 4764000      4764000    2720.2253    1700.7957    1019.4295    242.69746    221.49353    25501.999   0.63581371 
 4766000      4766000    2786.7292    1752.6879    1034.0413    250.10229   -1027.3562     25292.84   0.64107159 
 4768000      4768000    2741.6349    1726.2102    1015.4247    246.32402   -1236.2141    26159.927   0.61982287 
 4770000      4770000    2712.5036    1729.2994    983.20423    246.76483      181.152    25384.408   0.63875906 
 4772000      4772000    2729.5142    1713.6443    1015.8699     244.5309    -1501.803    25355.478   0.63948788 
 4774000      4774000    2805.2157    1799.4197     1005.796    256.77074   -1020.6778    25833.848   0.62764638 
 4776000      4776000    2707.6886    1703.3726     1004.316    243.06517   -1107.3467    25379.906   0.63887237 
 4778000      4778000     2714.103    1779.2215    934.88152    253.88854    20.998944    25563.002   0.63429644 
 4780000      4780000    2815.1913    1811.7308    1003.4605    258.52749    438.64809     25907.98   0.62585045 
 4782000      4782000    2694.4018    1719.5897    974.81207    245.37929   -2207.8012    25576.476   0.63396226 
 4784000      4784000    2743.9325    1738.4476    1005.4849    248.07024    743.88323    25470.783   0.63659295 
 4786000      4786000      2787.87    1737.4389    1050.4311    247.92631   -163.73419    25833.973   0.62764333 
 4788000      4788000     2713.334     1709.617     1003.717    243.95622     44.30991    25445.725   0.63721983 
 4790000      4790000    2726.9521    1744.4289    982.52324    248.92375   -236.56642    25587.365   0.63369247 
 4792000      4792000    2830.3142    1758.9946    1071.3196    251.00223   -1179.6119    25786.906   0.62878894 
 4794000      4794000    2664.2942    1700.9521    963.34211    242.71976    1021.3072    25364.476   0.63926102 
 4796000      4796000    2663.2614    1691.8483    971.41312    241.42068   -585.91238    25210.071   0.64317634 
 4798000      4798000    2712.3626    1751.7322    960.63033    249.96592    1227.2002     25190.32   0.64368063 
 4800000      4800000    2727.7918     1771.557    956.23481    252.79483   -682.38552    24984.321   0.64898786 
 4802000      4802000    2771.3938    1821.1382     950.2556    259.86989   -457.41153    25622.777   0.63281668 
 4804000      4804000    2734.2574    1736.4415    997.81588    247.78398    722.19807    25614.029   0.63303282 
 4806000      4806000    2713.2608     1719.768    993.49285    245.40473    1203.8937    25566.118   0.63421913 
 4808000      4808000     2725.152     1782.789    942.36303     254.3976    450.36821    25386.477     0.638707 
 4810000      4810000    2673.0081     1733.974    939.03415    247.43188    938.02677    25901.209   0.62601405 
 4812000      4812000    2780.9586    1772.4455    1008.5131    252.92162    -893.5375    26405.204   0.61406535 
 4814000      4814000    2783.4804    1819.9505    963.52994    259.70041    1053.1295    26095.199   0.62136032 
 4816000      4816000    2756.5649    1791.6539    964.91104    255.66259   -229.64633    25960.748   0.62457834 
 4818000      4818000    2810.4899    1735.4712    1075.0186    247.64553    336.59834    26478.327   0.61236954 
 4820000      4820000     2736.346    1709.8093    1026.5366    243.98367      1115.92     26109.91   0.62101023 
 4822000      4822000     2842.223    1815.3851    1026.8379    259.04895    1472.6719    25695.409   0.63102793 
 4824000      4824000    2785.4613     1791.569    993.89232    255.65047    -1178.095    25720.239   0.63041875 
 4826000      4826000    2782.3238    1754.3608    1027.9631    250.34099   -604.88518    25999.907   0.62363765 
 4828000      4828000    2699.5306    1736.2197    963.31093    247.75233     1403.776    25559.367   0.63438665 
 4830000      4830000    2763.5064    1789.2307    974.27575    255.31681   -276.52328    25627.368   0.63270332 
 4832000      4832000     2713.212     1768.555    944.65695    252.36647     -726.281    25442.181    0.6373086 
 4834000      4834000    2761.6084    1736.8775    1024.7309     247.8462    401.61455    25664.414   0.63179002 
 4836000      4836000    2736.8516    1759.8683    976.98334     251.1269   -274.83852    25575.245    0.6339928 
 4838000      4838000    2734.4851    1768.3484    966.13667    252.33698    806.42188    25611.057   0.63310628 
 4840000      4840000    2770.1529    1723.2578    1046.8951    245.90271    361.54231    26122.215    0.6207177 
 4842000      4842000    2763.9008    1718.1538     1045.747     245.1744    404.20111    25668.848   0.63168089 
 4844000      4844000    2752.7026    1744.2791    1008.4235    248.90237   -503.13075    25582.748   0.63380685 
 4846000      4846000    2720.3328    1715.9322    1004.4005    244.85738    650.00004    25609.151   0.63315339 
 4848000      4848000    2796.4316    1773.8935     1022.538    253.12825    1606.2196    26251.029   0.61767182 
 4850000      4850000    2660.3134    1729.6319    930.68156    246.81227     2340.989    25732.101   0.63012813 
 4852000      4852000    2757.6071    1770.5266     987.0805    252.64781    582.91233    25764.437   0.62933728 
 4854000      4854000    2726.1044    1723.9902    1002.1141    246.00723   -903.62198    25829.204   0.62775923 
 4856000      4856000    2759.4074    1721.8005    1037.6068    245.69477    277.19549    25791.342   0.62868078 
 4858000      4858000    2706.9932    1728.3341    978.65918    246.62708   -883.17236    25378.793   0.63890039 
 4860000      4860000    2718.6485    1750.5707    968.07778    249.80017   -1163.5044    26100.492   0.62123431 
 4862000      4862000    2691.9329    1728.6804    963.25251     246.6765   -21.357275     25412.38   0.63805597 
 4864000      4864000    2838.5938    1786.8372    1051.7566    254.97527    346.06359    25523.652   0.63527432 
 4866000      4866000    2792.7177    1751.5003    1041.2175    249.93281    1457.9016    25384.007   0.63876917 
 4868000      4868000    2712.5121    1723.2505    989.26159    245.90167   -809.97771    25358.754   0.63940526 
 4870000      4870000    2755.0212    1760.3603    994.66084    251.19711    1147.6258    25697.728   0.63097098 
 4872000      4872000    2699.7554    1706.6278    993.12756    243.52967   -402.91212     25370.75   0.63910293 
 4874000      4874000    2776.7931    1804.1267    972.66645    257.44241    1029.4339    25547.552   0.63468003 
 4876000      4876000    2750.8597    1736.9561    1013.9037    247.85741    10.659125    25296.821   0.64097069 
 4878000      4878000    2777.3526    1752.4693    1024.8833    250.07109    2.5515419    25191.966   0.64363856 
 4880000      4880000    2650.3642    1702.0577    948.30646    242.87754    738.61984    25351.955   0.63957674 
 4882000      4882000    2869.6523     1835.002    1034.6503     261.8482   -591.26631    25373.313   0.63903838 
 4884000      4884000    2772.0566    1758.8486     1013.208    250.98139    842.46703    25228.845   0.64269772 
 4886000      4886000    2772.9695    1750.6562    1022.3133    249.81236   -739.04484    26288.899   0.61678205 
 4888000      4888000    2818.4969    1762.7745    1055.7224     251.5416   -931.49104    26128.999   0.62055654 
 4890000      4890000    2687.8975    1726.7608    961.13664    246.40259    1424.8828    24691.604   0.65668155 
 4892000      4892000    2719.1578    1737.1781    981.97967     247.8891    98.486817    25382.206   0.63881448 
 4894000      4894000    2780.6281    1747.7994    1032.8288    249.40471   -1476.3226    25616.167   0.63297997 
 4896000      4896000    2739.5637    1769.7013    969.86237    252.53004    463.17732    25138.741   0.64500131 
 4898000      4898000    2713.1464    1788.2816    924.86482    255.18138    343.49115     25134.09   0.64512068 
 4900000      4900000    2699.2071    1763.8648    935.34232    251.69719    159.35381     25232.08    0.6426153 
 4902000      4902000     2650.802    1739.5951    911.20698    248.23398    1396.2137    24638.261   0.65810331 
 4904000      4904000    2678.7994    1764.2914    914.50804    251.75806    14.563369    25573.657   0.63403216 
 4906000      4906000    2783.2702    1796.9797     986.2905    256.42257   -850.85994    25284.027   0.64129503 
 4908000      4908000    2693.2508    1780.6369    912.61393     254.0905    130.26246    25153.917   0.64461217 
 4910000      4910000    2761.9803    1783.0908    978.88952    254.44067   -245.16435    25236.996   0.64249013 
 4912000      4912000    2773.9751    1770.6519    1003.3232    252.66569    523.25712    25178.234    0.6439896 
 4914000      4914000    2757.8945    1769.5679    988.32667      252.511   -423.81707    25545.705   0.63472591 
 4916000      4916000    2718.6619    1777.7817    940.88015    253.68309    885.29932    25311.187    0.6406069 
 4918000      4918000    2739.9371    1787.0929    952.84428    255.01175   -322.83856    25404.173    0.6382621 
 4920000      4920000    2817.2386    1818.8723    998.36627    259.54656    1312.6694     25732.29    0.6301235 
 4922000      4922000    2662.1867    1707.0808    955.10587    243.59432    1051.7322    24996.694   0.64866661 
 4924000      4924000      2763.66    1768.2135    995.44656    252.31773     929.9709    26172.563   0.61952362 
 4926000      4926000    2730.9525    1713.9139    1017.0386    244.56937   -34.168929    25639.849   0.63239534 
 4928000      4928000    2770.8259    1772.0944    998.73149    252.87152   -463.39034    26168.709   0.61961486 
 4930000      4930000    2753.0807    1775.8013    977.27941    253.40048   -1271.1182    25601.794   0.63333535 
 4932000      4932000    2765.6503    1742.3414    1023.3089    248.62588    669.00826    25850.949   0.62723116 
 4934000      4934000    2729.0633    1717.3092    1011.7541    245.05387    45.448017    26041.063   0.62265204 
 4936000      4936000    2761.7061    1763.7645    997.94162    251.68287   -54.436713    25875.878   0.62662688 
 4938000      4938000    2745.1416    1746.7498     998.3918    249.25493    338.64226    25737.695   0.62999119 
 4940000      4940000    2762.2508    1799.2732    962.97765    256.74983    809.89343     25762.59   0.62938242 
 4942000      4942000    2741.6942    1721.3978    1020.2964     245.6373    1038.3029    26423.589   0.61363809 
 4944000      4944000    2740.3676    1747.3197    993.04785    249.33627   -2964.4132    26162.675   0.61975777 
 4946000      4946000    2742.8609    1719.7705    1023.0904    245.40509   -1384.1275    25775.758   0.62906088 
 4948000      4948000    2717.2905     1737.504    979.78649    247.93559   -1346.8132    26175.884   0.61944502 
 4950000      4950000    2758.7748    1751.1643    1007.6105    249.88487     1372.406    25724.019   0.63032611 
 4952000      4952000    2744.9017    1751.4006    993.50113    249.91859    1203.0954    26063.093   0.62212575 
 4954000      4954000    2810.8932    1751.8543    1059.0389    249.98334   -285.47169    26553.612   0.61063335 
 4956000      4956000    2741.9257    1753.3778    988.54793    250.20072   -825.73173    25853.056   0.62718005 
 4958000      4958000    2760.9961     1743.101    1017.8952    248.73427   -31.157159    26420.599   0.61370755 
 4960000      4960000    2718.0375    1715.5623    1002.4753    244.80459    1.2115292    26338.513   0.61562022 
 4962000      4962000    2777.9786    1771.9033    1006.0753    252.84426    507.66879    26118.009   0.62081765 
 4964000      4964000    2682.0397    1713.8871    968.15253    244.56556   -442.99907    25426.794   0.63769427 
 4966000      4966000     2731.842    1760.7335    971.10853    251.25036   -1445.5117    25632.753    0.6325704 
 4968000      4968000    2802.9022    1757.7497    1045.1525    250.82459     831.6559    25423.301   0.63778189 
 4970000      4970000    2681.1329    1730.0132    951.11971    246.86668    -815.7781    25777.693   0.62901366 
 4972000      4972000    2789.1882    1749.3187    1039.8695    249.62151    400.28506    26267.794   0.61727761 
 4974000      4974000    2787.6069    1777.7171    1009.8898    253.67387    684.13956    26124.489   0.62066366 
 4976000      4976000    2739.0118    1744.3425     994.6693    248.91143   -1257.9436    25489.701   0.63612048 
 4978000      4978000    2752.9015    1750.5487    1002.3528    249.79703   -1158.3314    26310.799   0.61626866 
 4980000      4980000    2772.1701    1805.4741    966.69598    257.63468    928.58923    25768.259   0.62924394 
 4982000      4982000    2799.6762    1752.8114    1046.8648     250.1199   -387.34558    25761.165   0.62941722 
 4984000      4984000    2702.1522    1717.5273    984.62495    245.08499   -542.76468    26082.215   0.62166962 
 4986000      4986000    2828.2079    1767.2184    1060.9894    252.17574     919.2611    26358.469   0.61515412 
 4988000      4988000    2746.4863    1748.6384    997.84794    249.52444   -115.45802     25782.97   0.62888491 
 4990000      4990000    2773.4725     1805.545    967.92746     257.6448    -2185.898    25960.165   0.62459238 
 4992000      4992000    2818.5198    1772.8204    1045.6994    252.97511   -870.56805    26288.323   0.61679556 
 4994000      4994000    2736.9235    1795.5695    941.35403    256.22133    168.10213     25377.29   0.63893824 
 4996000      4996000    2713.0455    1783.8641    929.18135    254.55102    1584.0899    25631.497   0.63260139 
 4998000      4998000    2733.1949    1749.1186    984.07628    249.59296   -43.419398    25788.186   0.62875772 
 5000000      5000000    2808.4441    1792.7484    1015.6958    255.81877   -1398.1292    25990.106   0.62387284 
Loop time of 7254.23 on 30 procs for 5000000 steps with 2352 atoms

Performance: 59.551 ns/day, 0.403 hours/ns, 689.253 timesteps/s
92.8% CPU use with 30 MPI tasks x 1 OpenMP threads

MPI task timing breakdown:
Section |  min time  |  avg time  |  max time  |%varavg| %total
---------------------------------------------------------------
Pair    | 2789.1     | 3136.2     | 3376.7     | 298.9 | 43.23
Bond    | 171.28     | 174.3      | 176.24     |  10.9 |  2.40
Kspace  | 1032.1     | 1293.5     | 1672.5     | 509.6 | 17.83
Neigh   | 205.33     | 207.92     | 210.41     |   9.1 |  2.87
Comm    | 1836.2     | 1900.2     | 1976.2     |  89.6 | 26.19
Output  | 1.3499     | 1.3722     | 1.9765     |   9.6 |  0.02
Modify  | 201.1      | 240.01     | 282.48     | 160.5 |  3.31
Other   |            | 300.7      |            |       |  4.15

Nlocal:    78.4 ave 93 max 63 min
Histogram: 2 0 0 4 7 7 3 5 1 1
Nghost:    4880.63 ave 5004 max 4798 min
Histogram: 4 4 3 6 3 3 3 2 1 1
Neighs:    40707.3 ave 51436 max 30787 min
Histogram: 1 2 3 4 5 7 6 0 1 1

Total # of neighbors = 1221218
Ave neighs/atom = 519.225
Ave special neighs/atom = 9.14286
Neighbor list builds = 153343
Dangerous builds = 0
write_data ethanol_after_npt.data
Ewald initialization ...
  using 12-bit tables for long-range coulomb (src/kspace.cpp:332)
  G vector (1/distance) = 0.187824
  estimated absolute RMS force accuracy = 0.00464375
  estimated relative force accuracy = 1.39845e-05
  KSpace vectors: actual max1d max3d = 128 4 364
                  kxmax kymax kzmax  = 4 4 4



#fix 1 all nvt temp 300 300 100# iso 1.0 1.0 1000.0
#dump            DUMPxyz all xyz 1 but1_clms_20ps.xyz

#run 500000
Total wall time: 2:00:54
