LAMMPS (3 Mar 2020)
  using 1 OpenMP thread(s) per MPI task
units           real
atom_style      full
boundary        p p p


pair_style      lj/cut/coul/long 12.0
pair_modify     tail yes mix geometric
bond_style      harmonic
angle_style     harmonic
dihedral_style  opls

kspace_style    ewald 1.0e-5
#special_bonds   lj/coul 0.0 0.0 0.5

neighbor        2.0 bin
neigh_modify    every 1 delay 0 check yes

read_data       buate_after_min.data
  orthogonal box = (0 0 0) to (35 35 35)
  2 by 3 by 5 MPI processor grid
  reading atoms ...
  2352 atoms
  reading velocities ...
  2352 velocities
  scanning bonds ...
  1 = max bonds/atom
  scanning angles ...
  6 = max angles/atom
  scanning dihedrals ...
  11 = max dihedrals/atom
  reading bonds ...
  2184 bonds
  reading angles ...
  4032 angles
  reading dihedrals ...
  4536 dihedrals
  4 = max # of 1-2 neighbors
  6 = max # of 1-3 neighbors
  9 = max # of 1-4 neighbors
  13 = max # of special neighbors
  special bonds CPU = 0.00120881 secs
  read_data CPU = 0.0260289 secs

group           mobile union all
2352 atoms in group mobile

#minimize 1.0e-8 1.0e-10 400000 400000
#write_data buate_after_min.data

thermo_style    custom step time  etotal ke pe temp press vol density
#thermo_modify   line multi
thermo          2000
thermo_modify   flush yes
timestep 1.0


## Equil NPT ##
fix      NPT  all npt temp 200 200 100 iso 1 1 1000
restart 1000000 liqbut1.restart

#fix      NPT  all npt temp 160 160 50 iso 1 1 500
dump myDump all atom 2000 butane_npt.lammpstrj

run 5000000
Ewald initialization ...
  using 12-bit tables for long-range coulomb (src/kspace.cpp:332)
  G vector (1/distance) = 0.183139
  estimated absolute RMS force accuracy = 0.00345955
  estimated relative force accuracy = 1.04183e-05
  KSpace vectors: actual max1d max3d = 257 5 665
                  kxmax kymax kzmax  = 5 5 5
Neighbor list info ...
  update every 1 steps, delay 0 steps, check yes
  max neighbors/atom: 2000, page size: 100000
  master list distance cutoff = 14
  ghost atom cutoff = 14
  binsize = 7, bins = 5 5 5
  1 neighbor lists, perpetual/occasional/extra = 1 0 0
  (1) pair lj/cut/coul/long, perpetual
      attributes: half, newton on
      pair build: half/bin/newton
      stencil: half/bin/3d/newton
      bin: standard
Per MPI rank memory allocation (min/avg/max) = 21.73 | 21.87 | 22.23 Mbytes
Step Time TotEng KinEng PotEng Temp Press Volume Density 
       0            0   -769.51728            0   -769.51728            0   -124.28966        42875   0.37818125 
    2000         2000    -82.52054    502.27481   -584.79535    71.672816   -71.357059    33613.487   0.48238141 
    4000         4000    2082.9559    1447.8595    635.09639    206.60437     869.4309    47599.255   0.34064653 
    6000         6000    2311.0143    1413.2861    897.72825    201.67086    340.60101    59011.648   0.27476814 
    8000         8000    2413.1335     1398.669    1014.4645    199.58505   -361.21396    68028.505   0.23834892 
   10000        10000    2505.9359    1371.0281    1134.9078     195.6408    556.13076    71958.585   0.22533129 
   12000        12000    2497.7677    1409.7236    1088.0442     201.1625    176.96541    72178.906   0.22464348 
   14000        14000    2482.7042    1370.6666    1112.0376    195.58921   -343.47273    74296.335   0.21824119 
   16000        16000    2546.6816    1433.2216    1113.4601    204.51558   -312.52239    78314.025   0.20704492 
   18000        18000    2458.7944    1405.3142    1053.4802    200.53331    -11.00395    72872.459   0.22250547 
   20000        20000    2459.7914    1413.7659    1046.0255    201.73932   -64.040053    68500.961   0.23670501 
   22000        22000    2432.7418    1388.1992    1044.5426    198.09106    190.12026    60860.373   0.26642165 
   24000        24000    2340.0158    1365.3778    974.63803    194.83452   -390.88593    54210.962   0.29910041 
   26000        26000    2305.6508    1406.3096    899.34115    200.67534    379.95147    47721.131   0.33977654 
   28000        28000    2325.8297    1395.5574    930.27231    199.14104   -827.14811    42912.962    0.3778467 
   30000        30000     2256.777    1416.8414    839.93564    202.17819    51.149992    39089.952   0.41480023 
   32000        32000    2139.9295    1376.2548    763.67466    196.38663   -433.29916    34005.959   0.47681411 
   34000        34000    2048.2179    1348.3595    699.85835    192.40608    102.95955    29885.791   0.54254951 
   36000        36000    2082.8242    1396.3791    686.44511     199.2583    53.417123    27050.394   0.59941903 
   38000        38000    2006.8518    1399.8654    606.98642    199.75578    1263.6083    25867.567   0.62682821 
   40000        40000    2043.0875    1416.3746    626.71287    202.11158    2283.5951     24919.59   0.65067366 
   42000        42000    2044.2141    1435.6229    608.59126    204.85824    1244.0544    24920.316   0.65065471 
   44000        44000    2015.5055    1393.1835    622.32197     198.8023     301.6464    24594.749    0.6592676 
   46000        46000    1970.4426    1409.2438    561.19879    201.09405    -739.5041    24336.912    0.6662522 
   48000        48000    1950.8557     1358.278    592.57769     193.8214    178.40541    24170.422   0.67084146 
   50000        50000    1995.3581    1403.1168    592.24128    200.21974    -377.3932    24363.678   0.66552024 
   52000        52000    1922.9478    1348.7995    574.14828    192.46886   -2227.2459    24107.114   0.67260314 
   54000        54000    1913.9637    1372.7509    541.21284    195.88664    2304.4824     24164.27   0.67101224 
   56000        56000    1985.2935    1405.1233    580.17023    200.50606     1414.717    23625.808   0.68630547 
   58000        58000    1921.3953    1382.0207    539.37469     197.2094   -310.60601    23305.495    0.6957381 
   60000        60000     1956.718    1401.3407    555.37727     199.9663    428.31353    23279.213    0.6965236 
   62000        62000    1977.6391    1420.4053    557.23387    202.68674    104.95099    23424.138   0.69221419 
   64000        64000    1925.6126     1372.914    552.69865     195.9099    398.38783    23509.876   0.68968977 
   66000        66000    1929.0133    1404.8855    524.12778    200.47213      198.834    23223.631    0.6981906 
   68000        68000    1936.2946    1396.5571    539.73745     199.2837   -185.67087     23587.03   0.68743376 
   70000        70000    1895.3348    1358.1263    537.20849    193.79976    818.90684    23514.982   0.68954002 
   72000        72000    1969.0758    1440.7619    528.31391    205.59155    1208.8961    23484.078   0.69044743 
   74000        74000    1981.5885     1433.656    547.93247    204.57757   -699.31535    23602.111   0.68699452 
   76000        76000    1901.3712    1397.8096    503.56161    199.46242     604.4621    23398.058   0.69298575 
   78000        78000    1951.5575    1369.3772    582.18029    195.40521    1152.5581    23765.938   0.68225883 
   80000        80000    1949.5368     1379.507    570.02982    196.85071   -8.0192641    23408.294   0.69268272 
   82000        82000    1965.9436    1407.5824    558.36127    200.85696   -885.66386    23810.033   0.68099531 
   84000        84000    1950.7288    1399.4442    551.28456    199.69568   -330.84086    23366.902   0.69390974 
   86000        86000    1976.3489    1421.0339    555.31505    202.77644   -543.12058    23603.977   0.68694022 
   88000        88000    1986.0673    1393.8025    592.26483    198.89062    331.08023    23929.597   0.67759272 
   90000        90000    1898.6124    1366.9207    531.69168    195.05469    581.52255    23421.278   0.69229873 
   92000        92000    1919.8061    1380.9618    538.84426     197.0583    415.81996    23200.307    0.6988925 
   94000        94000    1995.7308     1411.557     584.1738    201.42413    1155.7717    23397.279   0.69300882 
   96000        96000    1967.8229    1398.0704    569.75243    199.49964    596.83307    23668.024   0.68508132 
   98000        98000     2005.146    1471.4278    533.71817    209.96748   -72.458092    23667.429   0.68509854 
  100000       100000    2017.7395    1437.7186    580.02092    205.15729   -177.24669     24004.63   0.67547472 
  102000       102000    1980.4843    1413.3636    567.12067    201.68192   -30.618886     23827.49   0.68049638 
  104000       104000    1967.5114    1427.2692    540.24222     203.6662    504.45325    23721.213   0.68354519 
  106000       106000    1920.9483    1356.2286    564.71972    193.52897   -1035.3177     23919.94    0.6778663 
  108000       108000    1955.6108    1390.2503    565.36058    198.38373   -737.38149    24036.854   0.67456919 
  110000       110000    1997.9847    1434.6795    563.30521    204.72362   -1728.6678    24008.118    0.6753766 
  112000       112000    1927.9374    1390.9258    537.01159    198.48012    1685.9462    23214.214   0.69847382 
  114000       114000    1951.3355    1392.5864    558.74916    198.71708   -1523.0452    23521.809   0.68933989 
  116000       116000     1900.672    1373.3494    527.32266    195.97203   -32.662922    23192.577   0.69912544 
  118000       118000    2033.3805    1417.4933    615.88725    202.27121   -849.29131     23610.02    0.6867644 
  120000       120000    1930.4372     1398.995    531.44224    199.63157    69.393759    23457.332   0.69123466 
  122000       122000    1980.7924    1420.5708    560.22161    202.71037   -481.47052    23905.354   0.67827988 
  124000       124000    1917.3698    1364.2723    553.09754    194.67676    534.34448    23563.458   0.68812144 
  126000       126000    1937.9541    1393.9805    543.97362    198.91602    681.57622    23757.331     0.682506 
  128000       128000    1947.8043    1399.2323    548.57202    199.66543   -337.41037    23729.697   0.68330081 
  130000       130000    1925.7886    1402.7771    523.01146    200.17127    676.70077    23542.641   0.68872991 
  132000       132000    2009.6723    1402.9148    606.75746    200.19092   -351.54845      24359.7   0.66562894 
  134000       134000    1922.0252    1390.6503    531.37491    198.44082    1422.6295    23501.029   0.68994941 
  136000       136000    1908.7141    1352.9055     555.8086    193.05476    1774.2429     23917.89   0.67792438 
  138000       138000    1998.2904    1443.5915    554.69895    205.99533   -1296.3165    23573.269   0.68783506 
  140000       140000    1930.3411    1394.4897    535.85135    198.98869   -1046.0714    23601.738   0.68700536 
  142000       142000    1972.4449    1386.7334    585.71154    197.88189    1293.3161    23822.678   0.68063384 
  144000       144000    1946.4544    1429.4665     516.9879    203.97975    837.96493     23662.56   0.68523949 
  146000       146000    1948.1077    1384.0225    564.08523    197.49505   -14.249017    23643.902   0.68578025 
  148000       148000    1964.4855    1413.7751    550.71037    201.74064    462.93945    23877.184   0.67908013 
  150000       150000    1959.7019    1404.2851    555.41685    200.38645   -162.72195     23593.41   0.68724788 
  152000       152000    1963.6866     1387.241    576.44558    197.95432    426.30152    23708.737   0.68390488 
  154000       154000    1951.6949    1358.4981    593.19679    193.85282     1117.017    23776.169   0.68196524 
  156000       156000    1985.5303    1408.4428    577.08747    200.97975     -1662.57     23489.81   0.69027892 
  158000       158000    1988.6838    1446.4658    542.21795    206.40549    -316.8352    23508.065   0.68974289 
  160000       160000    1988.3622    1410.0218    578.34034    201.20506    848.03226     23926.59   0.67767789 
  162000       162000    1940.9115    1407.6662    533.24533    200.86892   -293.91793    23490.271   0.69026538 
  164000       164000    1944.1221     1389.274     554.8481    198.24442   -692.03856    23913.708   0.67804295 
  166000       166000    1938.9397    1392.4342    546.50551    198.69537   -805.07976     23666.06   0.68513817 
  168000       168000    1974.9954    1439.3893    535.60604     205.3957    739.19286    23607.738   0.68683077 
  170000       170000    2020.8381     1432.234    588.60403    204.37466      760.951    23387.122   0.69330979 
  172000       172000    1920.7466    1387.0367    533.70998    197.92516    429.12113    23217.425   0.69837723 
  174000       174000     1915.759     1404.115    511.64402    200.36218    1057.0491    23690.313   0.68443677 
  176000       176000    2012.4639    1437.3657    575.09828    205.10693    -862.5585    23518.617   0.68943343 
  178000       178000    1918.7587    1394.3592    524.39949    198.97007     1931.419    23357.736   0.69418205 
  180000       180000    1882.2483     1368.171    514.07729     195.2331   -40.476009    23546.885   0.68860579 
  182000       182000    1880.9308    1366.7594    514.17136    195.03167   -172.92382    23504.916   0.68983531 
  184000       184000    1955.6575     1396.457     559.2005    199.26941    1787.7726    23616.384   0.68657932 
  186000       186000    1938.7711    1377.9753    560.79576    196.63214    541.47575    23859.061   0.67959593 
  188000       188000    1938.5521     1395.877     542.6752    199.18664    1356.2991    23859.222   0.67959136 
  190000       190000    1992.4866    1421.7936    570.69296    202.88486   -58.206111    23826.181   0.68053379 
  192000       192000    1923.3085    1388.6649    534.64361    198.15751    343.39513    23531.973   0.68904213 
  194000       194000    1935.5689    1385.3041    550.26473    197.67794    344.35571    23905.336   0.67828039 
  196000       196000    2003.0724    1441.8437     561.2287    205.74593    444.64799    24128.961   0.67199417 
  198000       198000    2000.3035    1421.1123    579.19119    202.78764    534.06424    23675.557   0.68486333 
  200000       200000    1954.2386    1424.7549    529.48374    203.30742   -808.65586    23741.166   0.68297072 
  202000       202000    1922.9603    1372.4898    550.47045    195.84938   -1062.6084    23650.752   0.68558162 
  204000       204000    2015.7633    1421.3269    594.43636    202.81826    591.68532    23482.763   0.69048606 
  206000       206000    1897.0852    1373.7772      523.308    196.03308    1942.7583    23771.937   0.68208665 
  208000       208000    1974.5733    1449.0905    525.48287    206.78002   -878.38113    23738.226    0.6830553 
  210000       210000     1933.233    1414.8207    518.41234    201.88984    135.69757      23352.6   0.69433472 
  212000       212000    1986.6467    1431.1907    555.45603    204.22578    1148.2966    23792.275   0.68150359 
  214000       214000     1925.538    1399.6686    525.86939     199.7277    41.154218    23455.715   0.69128232 
  216000       216000    1957.9595    1397.3689    560.59066    199.39953    1049.8793    23655.784   0.68543578 
  218000       218000    1944.5488    1402.3568    542.19194     200.1113    652.42189    23792.717   0.68149094 
  220000       220000    1923.0511    1429.4875    493.56359    203.98274    514.97638     23184.59   0.69936629 
  222000       222000    1972.8189    1402.2089    570.61007    200.09018    549.28962    23619.467   0.68648971 
  224000       224000    1950.2811    1417.8414    532.43979    202.32088    1192.2071    22929.082   0.70715964 
  226000       226000    1958.2844    1408.2946    549.98977     200.9586   -1186.2791    23488.742   0.69031033 
  228000       228000    1862.1061    1364.6823    497.42376    194.73528    186.93002    23454.305   0.69132386 
  230000       230000    1900.9605    1368.4201    532.54043    195.26864    -1075.344    23719.692   0.68358901 
  232000       232000    1931.7473    1401.6541    530.09327    200.01101   -249.72973    23609.031   0.68679315 
  234000       234000    2038.4837    1432.5623    605.92148     204.4215    330.97906     23934.04   0.67746694 
  236000       236000    1995.3674    1454.1471    541.22027    207.50159    480.32771    23947.049    0.6770989 
  238000       238000    1920.3191      1380.29    540.02915    196.96243   -745.94616    23992.299   0.67582189 
  240000       240000    1971.1316    1459.3044    511.82723    208.23751   -137.34497    23290.643   0.69618177 
  242000       242000    1970.3169    1422.0977     548.2192    202.92824     1544.382     23637.62   0.68596251 
  244000       244000    1916.8572    1384.8297    532.02743    197.61024    619.75612    23565.033   0.68807547 
  246000       246000    1958.4374     1411.238    547.19938     201.3786   -183.94726    23508.716    0.6897238 
  248000       248000    1969.4835     1443.813    525.67047    206.02694   -2243.6751    23648.965   0.68563343 
  250000       250000    1902.6678      1384.79    517.87777    197.60457    1060.0656    23127.612   0.70108928 
  252000       252000    1974.6584    1438.3022    536.35622    205.24057   -626.27182     23450.73   0.69142926 
  254000       254000    1896.4049    1392.8668    503.53808     198.7571   -114.31762    23579.513    0.6876529 
  256000       256000     1966.555    1435.9485    530.60649    204.90471    607.42883    23412.704   0.69255225 
  258000       258000    1881.3563    1377.3745    503.98181     196.5464   -1202.6055    22926.723   0.70723239 
  260000       260000     2020.008    1436.0662    583.94179     204.9215   -2366.5601    23986.972   0.67597197 
  262000       262000    1961.3699    1400.5521    560.81783    199.85376    1203.0465    23510.637   0.68966744 
  264000       264000    1923.8485    1381.1747    542.67387    197.08868    1147.1349     23501.34   0.68994027 
  266000       266000    1926.9883    1403.1021    523.88624    200.21764   -164.56849    23262.459   0.69702523 
  268000       268000    1963.5274    1405.2337    558.29372    200.52182   -451.88389    23391.239   0.69318778 
  270000       270000    1972.6989    1384.3583    588.34068    197.54296   -993.87201    23477.572   0.69063875 
  272000       272000    1906.0845    1375.9812    530.10331    196.34759   -754.11701     23289.23   0.69622399 
  274000       274000    1948.1123    1374.2204    573.89191    196.09632   -127.61481    23470.798   0.69083808 
  276000       276000    1989.4847     1396.029    593.45576    199.20833   -856.90387    23309.447   0.69562015 
  278000       278000    1976.7884    1436.5519    540.23647    204.99081    411.70346    23382.792   0.69343819 
  280000       280000    1908.7866    1387.8405    520.94612    198.03987    -1047.876    23495.864   0.69010106 
  282000       282000    1938.4419      1416.18    522.26186    202.08381   -1036.7917    23507.118   0.68977069 
  284000       284000    1939.2276    1418.4792    520.74839     202.4119   -1468.5645    23351.325   0.69437264 
  286000       286000    1841.1143    1369.0658    472.04849    195.36079   -1258.2541    23511.134   0.68965288 
  288000       288000    1920.3924    1376.4114    543.98094    196.40898   -11.342653     23534.16   0.68897811 
  290000       290000    1915.4124    1378.7852    536.62716    196.74771     1263.285    23179.539   0.69951869 
  292000       292000    1935.8484    1398.9675    536.88094    199.62765    85.667079    23376.941   0.69361174 
  294000       294000    1907.2574    1402.8059    504.45156    200.17537    796.29476    23396.979   0.69301772 
  296000       296000    1950.3266    1396.5341    553.79242    199.28042    1176.4715      23551.4   0.68847375 
  298000       298000    1966.0314    1392.7885    573.24295    198.74592    1261.6323    23551.145   0.68848123 
  300000       300000    1938.1331    1398.5871    539.54592    199.57337   -295.11643    23360.604   0.69409682 
  302000       302000    1906.0865    1380.6969    525.38955     197.0205    61.034718     23405.59   0.69276276 
  304000       304000    1993.1004    1398.8026    594.29776    199.60412   -590.63304    23825.077   0.68056532 
  306000       306000    1944.5382    1366.2191    578.31913    194.95457   -1030.4914    23808.161   0.68104887 
  308000       308000    1982.1571    1436.9004    545.25677    205.04053   -737.79351    23440.409    0.6917337 
  310000       310000    1970.1177    1382.7975    587.32021    197.32024   -189.66255     23997.62   0.67567205 
  312000       312000    1978.6362    1402.5312    576.10493    200.13618    1551.9489    23792.493   0.68149734 
  314000       314000    1975.6133    1422.4724     553.1409    202.98171   -448.84677    23542.028   0.68874784 
  316000       316000    1966.8773    1386.5261     580.3512    197.85231   -612.16972    23956.349   0.67683605 
  318000       318000    1999.3783      1393.02    606.35832    198.77896    1090.4934    23870.572   0.67926823 
  320000       320000    1972.6784    1423.3075    549.37087    203.10088    371.99581    23698.135   0.68421083 
  322000       322000    1907.8989    1394.4466     513.4523    198.98254   -618.66511    23296.934   0.69599376 
  324000       324000    1987.3496    1456.3244    531.02519    207.81228   -23.316299    23666.681   0.68512018 
  326000       326000    1957.0808    1378.1998    578.88103    196.66417   -266.28952    23851.769   0.67980372 
  328000       328000    1923.0407     1382.184    540.85668    197.23271    472.12418    23470.555   0.69084524 
  330000       330000    2004.1961     1403.269     600.9271    200.24146   -1044.7258     23832.37   0.68035706 
  332000       332000    1948.9661    1419.4567    529.50937    202.55139   -226.05684    23434.336   0.69191298 
  334000       334000    1962.1265    1380.6225    581.50398    197.00989   -1004.2439    23922.775   0.67778596 
  336000       336000    1953.8933    1420.3736    533.51974    202.68222   -1163.2804    23609.072   0.68679197 
  338000       338000    1950.3509    1403.8016    546.54927    200.31746    23.992268    23859.987   0.67956955 
  340000       340000    2001.0435    1445.4115    555.63206    206.25504    129.88341    23768.556   0.68218367 
  342000       342000    1945.8542    1404.6004    541.25386    200.43144    -1553.543    23939.954   0.67729957 
  344000       344000    1950.7204    1416.4129    534.30754    202.11704    1015.5219    23474.572   0.69072702 
  346000       346000    1937.3961    1409.2014    528.19466    201.08799    -352.4738    23672.814   0.68494268 
  348000       348000       1991.3    1398.0316    593.26832    199.49411   -1582.5466    23742.307   0.68293788 
  350000       350000    1943.9202    1383.9333     559.9869    197.48232      97.5943    23753.318    0.6826213 
  352000       352000    1980.3748    1434.9421     545.4327     204.7611   -951.28923    23340.419   0.69469708 
  354000       354000    1908.9787    1362.3461    546.63255    194.40191     760.3581    23223.324   0.69819984 
  356000       356000    1923.6578    1400.9675     522.6904    199.91304    -965.2914    23584.536   0.68750646 
  358000       358000     1946.261    1394.7693    551.49177    199.02858   -95.741311    23786.872   0.68165841 
  360000       360000    1908.9048    1364.3575    544.54726    194.68893   -1202.1516    23481.819   0.69051383 
  362000       362000    1999.5543    1423.8858    575.66852    203.18341   -551.38366    23733.517   0.68319082 
  364000       364000    1996.1359    1404.7563    591.37956     200.4537   -1121.8452    23710.984   0.68384007 
  366000       366000    1999.4388    1409.1253     590.3135    201.07713   -169.83984    23491.326   0.69023439 
  368000       368000    1931.0346    1387.5559    543.47875    197.99925    73.635877    23547.611   0.68858454 
  370000       370000    1956.1245     1385.958    570.16656    197.77123   -168.72013    23445.525   0.69158277 
  372000       372000    1939.3223    1414.7827    524.53961    201.88442    236.41215     23115.15   0.70146725 
  374000       374000    1902.5942    1391.3318     511.2624    198.53806    1751.5746    23274.062   0.69667774 
  376000       376000    1958.3809    1400.5096    557.87131     199.8477     1292.675    23257.723   0.69716718 
  378000       378000    1986.6962    1432.8895    553.80673     204.4682   -2723.0038     23233.02   0.69790845 
  380000       380000    1902.4664     1393.269    509.19745    198.81449   -1550.7383    23562.672    0.6881444 
  382000       382000    1939.8456    1386.5459    553.29973    197.85513   -488.20168    23775.615   0.68198112 
  384000       384000    2019.0866    1410.9847    608.10186    201.34247     -37.3117    23863.363   0.67947343 
  386000       386000    2029.0599    1440.0881    588.97172    205.49542    120.67889    23399.535     0.692942 
  388000       388000    1984.5714    1397.6356    586.93579    199.43759    945.35784    23752.806   0.68263602 
  390000       390000    1918.6969    1431.8664    486.83047     204.3222    398.02232    23431.385    0.6920001 
  392000       392000    2031.7452    1446.5249    585.22025    206.41392   -1013.9842    24285.211   0.66767059 
  394000       394000    1902.5767    1366.3885    536.18813    194.97875     369.5402    23683.764   0.68462602 
  396000       396000    1947.8553    1388.2654    559.58991     198.1005    987.73339    24022.394   0.67497524 
  398000       398000    1979.2377      1409.19    570.04772    201.08637    1064.2658    23517.873   0.68945524 
  400000       400000    1966.7552     1424.511    542.24418    203.27262   -312.92573     23321.42   0.69526303 
  402000       402000    1938.5965    1402.0941    536.50242     200.0738   -719.29647    23564.768    0.6880832 
  404000       404000    1926.7995    1400.9233    525.87612    199.90674   -1149.5819    23377.654   0.69359058 
  406000       406000    1989.0286     1412.592    576.43662    201.57182   -268.44165    23733.863   0.68318085 
  408000       408000     1943.061    1418.1136    524.94732    202.35974   -572.06621     23421.04   0.69230577 
  410000       410000    1982.6136    1419.7479    562.86569    202.59294    308.81733     23454.39   0.69132137 
  412000       412000    1924.2673    1380.5488    543.71846    196.99937   -55.809248    23720.851   0.68355562 
  414000       414000     1925.679    1379.9043    545.77474     196.9074    779.35513    23427.041   0.69212842 
  416000       416000    1901.7489    1384.8772    516.87175    197.61701   -940.13969    23606.553   0.68686526 
  418000       418000    1959.0622    1373.4945    585.56777    195.99274   -867.78859    23721.421   0.68353919 
  420000       420000    1988.1225    1392.5059    595.61658    198.70561   -406.95036    23875.164   0.67913758 
  422000       422000    1991.1724    1403.1006    588.07179    200.21743    36.761875    24045.598   0.67432389 
  424000       424000     1958.905    1412.3369    546.56809    201.53542    571.81432    23564.404   0.68809384 
  426000       426000    2002.9855     1388.498    614.48745    198.13369   -967.01555    24057.616   0.67398701 
  428000       428000    2003.1658    1406.1676    596.99819    200.65508   -43.308442    24118.683   0.67228052 
  430000       430000    1951.0981    1412.7404    538.35776    201.59299    161.11022    23665.239   0.68516194 
  432000       432000    2003.0155    1403.6319    599.38352    200.29325   -833.64637    24161.531   0.67108829 
  434000       434000    1952.5528    1416.2721     536.2807    202.09696    51.355037    24098.407   0.67284618 
  436000       436000    1984.3929    1394.6352    589.75772    199.00944   -474.45789    23885.149   0.67885368 
  438000       438000    1878.5792    1382.7152    495.86403     197.3085   -421.42217    23424.661   0.69219876 
  440000       440000    2024.5336    1437.7137    586.81986    205.15659    1716.8305    23287.282   0.69628223 
  442000       442000    1966.6648    1402.1971    564.46769     200.0885   -196.59341    23785.952   0.68168475 
  444000       444000    1912.3425    1374.3868    537.95571    196.12008    936.70746    23541.385   0.68876664 
  446000       446000    1896.2651     1405.176    491.08902    200.51359    1147.9051    23394.913   0.69307892 
  448000       448000    1937.1076     1359.227    577.88059    193.95683     48.64891    23603.384   0.68695748 
  450000       450000    1957.2967     1393.669    563.62774    198.87157   -755.99241    23766.283   0.68224893 
  452000       452000    1953.6207    1421.7064     531.9143    202.87241    257.39466    23633.775   0.68607409 
  454000       454000    1954.8192    1437.5266    517.29263    205.12989   -625.12823    23822.618   0.68063555 
  456000       456000    1958.2439    1396.4517    561.79222    199.26865    67.444534      23612.9   0.68668063 
  458000       458000    1898.5633    1367.0193    531.54399    195.06876    -639.8381    23506.058   0.68980179 
  460000       460000    1968.0968    1414.9871    553.10967    201.91359   -962.59278    23794.004   0.68145407 
  462000       462000    1945.4973    1379.9115    565.58581    196.90842    1886.2426    23391.799   0.69317118 
  464000       464000    1952.4814    1367.3611    585.12031    195.11753   -1380.2784    24057.249   0.67399731 
  466000       466000    1960.3255    1413.5958    546.72974    201.71505    1120.1283    23556.599   0.68832181 
  468000       468000     1960.226    1443.7612    516.46485    206.01955     904.1303    23548.638    0.6885545 
  470000       470000    1954.2676    1406.9885    547.27908    200.77222   -894.68152    23661.055    0.6852831 
  472000       472000    1976.7603    1410.7038    566.05645    201.30238    709.69327    23457.578   0.69122742 
  474000       474000    1942.7853    1387.3969    555.38847    197.97656    -867.3702    24000.776   0.67558319 
  476000       476000    1951.5241    1379.8277    571.69632    196.89648    863.40413    23533.276   0.68900397 
  478000       478000    1956.9588    1434.2875    522.67131    204.66769    -154.0388    23232.365   0.69792813 
  480000       480000    1908.9626    1375.6893    533.27323    196.30594   -182.03612    23212.602   0.69852234 
  482000       482000    2010.4777    1417.2558    593.22186    202.23733     1421.337    23889.049   0.67874284 
  484000       484000    1893.1257    1364.1409    528.98487    194.65801    1085.1284    23445.665   0.69157865 
  486000       486000    1932.0406    1403.7369    528.30374    200.30822    2000.0514    23815.283   0.68084519 
  488000       488000    1899.0393    1380.5633    518.47601    197.00143    -406.9862    23529.998   0.68909996 
  490000       490000    1940.1908    1379.5422    560.64864    196.85573    -695.4643    23873.652   0.67918058 
  492000       492000    1925.1974    1364.4055    560.79196    194.69577    48.928206    23895.502   0.67855954 
  494000       494000    1877.3798    1359.7883    517.59147    194.03692   -862.04308    23774.342   0.68201765 
  496000       496000    1941.4338    1428.0755    513.35836    203.78126    315.99405    23269.988   0.69679972 
  498000       498000    1977.9787         1432    545.97869    204.34127    338.96379    23680.491   0.68472063 
  500000       500000    1949.6135    1380.2055    569.40799    196.95038   -1100.6619    23546.679    0.6886118 
  502000       502000    1921.2046    1402.5209     518.6837    200.13471     429.2591    23390.044    0.6932232 
  504000       504000    1974.9611    1429.7978     545.1634    204.02702    1127.5063    23524.335   0.68926585 
  506000       506000    1931.6713     1408.559    523.11224    200.99633   -462.96598     23411.99   0.69257338 
  508000       508000    1971.7136     1404.054     567.6596    200.35348   -992.60991    23402.481    0.6928548 
  510000       510000    1992.5652    1425.3754    567.18982    203.39597    682.41459    23282.146   0.69643585 
  512000       512000    1924.0646    1396.6301    527.43443    199.29412     450.5347    23330.131   0.69500342 
  514000       514000    1951.3058    1412.6382    538.66764    201.57841   -1548.3162    23439.225   0.69176866 
  516000       516000    1965.5251    1414.7709    550.75418    201.88274   -1309.2446    23715.426   0.68371199 
  518000       518000    1941.3713    1379.7215    561.64978    196.88132    -979.3784    23293.051   0.69610979 
  520000       520000    1888.6103    1389.5051    499.10527    198.27739   -830.34158    23360.917   0.69408751 
  522000       522000    1943.3974     1401.308    542.08936    199.96163   -122.48548    23452.469   0.69137801 
  524000       524000    1973.3498    1413.1312    560.21859    201.64875   -446.13462    23503.012    0.6898912 
  526000       526000    1943.2737    1399.2796    543.99406    199.67219   -734.62292    23533.595   0.68899464 
  528000       528000    1963.2288    1425.9947    537.23415    203.48433    382.15558    23382.506   0.69344667 
  530000       530000    1916.0593    1391.0097    525.04957     198.4921    1114.9476      23489.2   0.69029685 
  532000       532000    2005.0599    1442.7645    562.29545    205.87732    33.639925    23821.159   0.68067724 
  534000       534000    1928.0591    1409.6062    518.45296    201.14575   -87.173442    23715.267   0.68371656 
  536000       536000    1961.5902    1417.4043    544.18584    202.25852    87.283367    23290.032   0.69620002 
  538000       538000    1983.6108    1415.9696    567.64127    202.05378   -438.86636    23530.842   0.68907524 
  540000       540000    1946.7631    1389.6907    557.07234    198.30389   -1362.5273    23615.065   0.68661768 
  542000       542000    2000.7215    1416.1355    584.58604    202.07746   -2278.0168    23739.417   0.68302102 
  544000       544000    1932.2753    1387.5839     544.6914    198.00325     1328.965    23395.328   0.69306662 
  546000       546000    1959.5826    1401.3193    558.26331    199.96324   -771.16444    23397.891    0.6929907 
  548000       548000    1958.6423    1419.7208    538.92148    202.58908    460.37933    23344.663   0.69457078 
  550000       550000    1947.3933    1420.5074    526.88585    202.70132   -2707.7527     23781.35   0.68181667 
  552000       552000    1938.9459    1400.3721    538.57375    199.82809   -79.338585    23401.156   0.69289401 
  554000       554000    1925.0339    1372.3643    552.66962    195.83147    1973.6153    23460.356   0.69114555 
  556000       556000    1929.8318    1382.0888    547.74303    197.21912   -1823.8123    23719.818   0.68358538 
  558000       558000    1935.2346    1408.9038    526.33086    201.04552   -166.71697    23136.174   0.70082982 
  560000       560000    1926.5926    1385.4342    541.15838     197.6965   -2916.8203    23748.302    0.6827655 
  562000       562000     1893.538    1368.4284    525.10955    195.26983    339.44857    23294.028   0.69608061 
  564000       564000    1971.8169    1427.6286     544.1883    203.71749   -1512.1614    23435.462   0.69187971 
  566000       566000    1966.6341    1398.3739    568.26027    199.54294   -762.15492    24079.345   0.67337881 
  568000       568000    1973.0354    1380.1596    592.87578    196.94383   -564.17658    23906.654   0.67824301 
  570000       570000    1937.2807    1419.7164    517.56437    202.58844   -439.86773    23405.048   0.69277879 
  572000       572000    1973.7664    1416.5997    557.16665     202.1437   -386.76745    23742.415   0.68293476 
  574000       574000    1991.9045    1435.2876    556.61682     204.8104    983.72034    23414.429   0.69250122 
  576000       576000    1935.5731    1388.4604    547.11271    198.12833    1241.8956    23273.933   0.69668162 
  578000       578000    1827.5322    1354.4701    473.06205    193.27803   -1697.6467    23523.715   0.68928402 
  580000       580000    2028.2998    1439.4956    588.80422    205.41087    704.77005    23578.142   0.68769291 
  582000       582000    1894.9516    1390.2088    504.74282    198.37781   -777.57896    23099.863   0.70193147 
  584000       584000     1884.103    1379.0679    505.03504    196.78805    730.12375     23125.87    0.7011421 
  586000       586000     1987.258     1433.436    553.82204    204.54618   -599.32431    23281.467   0.69645615 
  588000       588000    1889.7733    1386.0289    503.74433    197.78136    -892.7608    23630.991   0.68615494 
  590000       590000    1929.9599    1394.2683    535.69156     198.9571   -339.73649    23101.564   0.70187979 
  592000       592000    1884.4229    1357.9087    526.51428     193.7687    906.86251    23120.444   0.70130663 
  594000       594000    1937.1087    1420.9088    516.19987    202.75859   -1005.5087    23264.391   0.69696735 
  596000       596000    1991.8055      1467.84    523.96545    209.45551    -1401.288    23507.725   0.68975288 
  598000       598000     1913.732    1395.4019    518.33011    199.11885    759.94557    23218.042   0.69835867 
  600000       600000    2000.0627     1436.662     563.4007    205.00651   -501.52683    23573.825   0.68781885 
  602000       602000    1968.9523    1399.5898     569.3625    199.71645   -250.43319    23793.842   0.68145872 
  604000       604000    1943.5995    1389.4798    554.11971    198.27379   -620.19765     23390.62   0.69320611 
  606000       606000    1914.0843    1398.0988    515.98553    199.50369   -1354.1151    23318.697   0.69534422 
  608000       608000    1940.1508    1399.5273     540.6235    199.70754    1057.3108    23254.309   0.69726952 
  610000       610000    1973.7734    1413.2658    560.50765    201.66797    267.00665    23450.547   0.69143467 
  612000       612000    1927.7284    1392.9086    534.81981    198.76306   -492.64287    23179.564   0.69951795 
  614000       614000    1949.8223    1421.4202    528.40213    202.83157   -488.92985    23444.192   0.69162209 
  616000       616000    1970.0087    1417.2489    552.75979    202.23634    422.17202    23773.038   0.68205506 
  618000       618000    1981.9217    1414.9591    566.96255     201.9096    147.53764    23624.942    0.6863306 
  620000       620000    1920.4284    1413.4569    506.97155    201.69523   -56.072039    23544.282   0.68868191 
  622000       622000    1923.7185    1383.3678    540.35074    197.40163   -63.650914    23351.487   0.69436781 
  624000       624000    2006.9358     1398.451    608.48481    199.55394    756.29022    23472.814   0.69077873 
  626000       626000    2002.4312    1425.8915    576.53963    203.46961    191.14478    23263.256   0.69700136 
  628000       628000    2007.9659    1444.8934    563.07246    206.18112     1710.095    23564.845   0.68808094 
  630000       630000    1915.2405    1386.8249    528.41553    197.89495   -849.70129    23727.957    0.6833509 
  632000       632000     1950.809    1412.4589    538.35009    201.55282    688.20188    23617.995   0.68653249 
  634000       634000    1967.9912    1397.3595    570.63174    199.39819    1509.2496    23383.945   0.69340399 
  636000       636000     1937.636    1377.2647    560.37132    196.53074   -275.49832    23031.915    0.7040023 
  638000       638000    1937.3731    1378.2375    559.13567    196.66955    22.932302     23039.26   0.70377786 
  640000       640000    1954.0723    1427.8991    526.17321    203.75608    109.29268    23279.201   0.69652393 
  642000       642000    1974.3257    1391.8598     582.4659    198.61341    1173.3223    23757.513   0.68250076 
  644000       644000    1953.3668    1360.8568    592.51001     194.1894     523.9421    23261.358   0.69705822 
  646000       646000    1886.7192    1380.2175    506.50172    196.95209   -821.32984    23204.539   0.69876506 
  648000       648000    1963.5346    1376.3605    587.17405    196.40172    2176.2595     23480.12   0.69056379 
  650000       650000    1955.0463    1369.6096    585.43673    195.43838   -1669.4691    23834.268   0.68030286 
  652000       652000    1987.0182    1396.3037    590.71451    199.24754   -1300.7405    23952.482   0.67694534 
  654000       654000    1941.7792    1416.2741    525.50512    202.09724   -391.40531    23520.831   0.68936853 
  656000       656000    1932.6934    1388.8105    543.88285    198.17829   -1164.3666    23510.642   0.68966729 
  658000       658000    1905.8437    1369.5497    536.29402    195.42983   -15.791607    23297.389   0.69598016 
  660000       660000     1862.672    1351.8264    510.84557    192.90079    929.44138    23325.536   0.69514034 
  662000       662000    1988.0863    1381.1657    606.92053     197.0874   -1608.5005     23659.16   0.68533797 
  664000       664000    1911.2477    1415.4788    495.76884    201.98376    285.64345    23299.897   0.69590525 
  666000       666000    1933.2552    1426.9944    506.26078    203.62699      142.323    23373.986   0.69369945 
  668000       668000    1905.8836    1400.5309    505.35279    199.85073    667.44323    23532.298   0.68903262 
  670000       670000    1997.6861    1439.9136    557.77241    205.47052   -1703.7121    23778.984    0.6818845 
  672000       672000      1941.59    1378.3423    563.24765    196.68451    272.46436    23820.422   0.68069831 
  674000       674000    1954.8654    1387.5859    567.27946    198.00354     844.3562    23570.177   0.68792529 
  676000       676000    1934.1535    1404.2279    529.92552     200.3783    510.91985     23718.91   0.68361155 
  678000       678000    1938.1393    1394.8723    543.26705    199.04327    -126.9914    23513.883   0.68957223 
  680000       680000    1990.9673    1412.0886     578.8787    201.49998    360.34187    23459.236   0.69117856 
  682000       682000    1885.7616    1381.3269    504.43473     197.1104    273.07839    23149.828   0.70041646 
  684000       684000    1989.0208    1421.5275    567.49327    202.84689    1383.0284    23560.826   0.68819832 
  686000       686000    1944.8154    1409.3341    535.48133    201.10692    104.24699    23756.988   0.68251585 
  688000       688000    1975.0332    1426.8157    548.21742    203.60149     394.1914    23512.966   0.68959914 
  690000       690000    1911.1629    1371.8321    539.33089    195.75552   -659.49042    23875.141   0.67913823 
  692000       692000    1962.7849     1417.555    545.22985    202.28003   -389.88633    23520.679   0.68937299 
  694000       694000    1996.1214    1420.0031    576.11826    202.62935    61.079046    23691.538   0.68440135 
  696000       696000    1946.8033    1376.2923    570.51104    196.39198   -1490.3092    23473.989   0.69074418 
  698000       698000    1914.7187     1371.772    542.94675    195.74695   -354.60791    23592.747   0.68726719 
  700000       700000     1954.199    1414.0971    540.10192    201.78659    940.43952    23422.245   0.69227014 
  702000       702000    1984.6539    1441.7108    542.94312    205.72696   -624.63077    23395.424   0.69306378 
  704000       704000    2004.4099    1423.6262    580.78365    203.14637    296.49098    23797.332   0.68135877 
  706000       706000    1962.2115    1406.8623    555.34915    200.75421   -754.64759    23986.143   0.67599533 
  708000       708000     1901.377    1370.6209    530.75614    195.58269   -269.02549     23731.52   0.68324832 
  710000       710000    1996.5457    1440.4475    556.09812     205.5467    246.71149    23593.691   0.68723969 
  712000       712000    1982.7221    1404.1336    578.58858    200.36483   -1085.9472    23702.175   0.68409423 
  714000       714000    1873.8123    1369.8388    503.97351    195.47109    396.80499    23458.748   0.69119294 
  716000       716000    1946.5082    1404.7665    541.74174    200.45515    1284.7282    23433.592   0.69193494 
  718000       718000    1966.4743     1379.407     587.0673    196.83644    338.80603    23498.347   0.69002815 
  720000       720000    1978.2202    1430.4788    547.74137     204.1242    65.528587    22908.853   0.70778406 
  722000       722000    1915.4987    1370.4765    545.02219    195.56208     261.8178    23175.436   0.69964255 
  724000       724000    1954.8476    1426.3606    528.48692    203.53655    808.12069     23142.46   0.70063947 
  726000       726000    1946.5348    1382.2683    564.26648    197.24473   -647.51196    23529.633   0.68911066 
  728000       728000    1970.6354    1393.3196    577.31585    198.82171    35.009314    23541.068   0.68877594 
  730000       730000    1900.5012    1365.9063    534.59494    194.90993   -994.72619    23383.284    0.6934236 
  732000       732000    1946.4461    1412.5153     533.9308    201.56087   -28.926761    23387.354   0.69330293 
  734000       734000    1926.2147    1364.7151    561.49965    194.73996    67.166848    23123.469   0.70121489 
  736000       736000    1912.6535    1380.5706    532.08288    197.00248    -344.6758    23307.923   0.69566564 
  738000       738000    2027.3598    1444.7457    582.61404    206.16004    146.02716     23228.06   0.69805749 
  740000       740000    1964.7578    1407.7777    556.98017    200.88483    853.25133    23361.447   0.69407177 
  742000       742000    1890.0076    1372.2106    517.79706    195.80953    665.58257    23125.222   0.70116173 
  744000       744000    1961.6091    1411.1829    550.42626    201.37074   -38.058147    23317.507    0.6953797 
  746000       746000    1952.7596    1403.0715    549.68808    200.21328    1272.4077    23790.885    0.6815434 
  748000       748000    1928.2138    1410.5894    517.62437    201.28605   -237.37338    23390.543   0.69320841 
  750000       750000    1928.1138    1352.6427    575.47109    193.01727   -606.38928    23493.559   0.69016876 
  752000       752000    1933.5372    1396.8082    536.72892    199.31953    470.54096    23672.827   0.68494232 
  754000       754000    1959.4611     1429.425    530.03612    203.97383    1309.8917    23081.846   0.70247937 
  756000       756000    1937.5713    1431.0018    506.56952    204.19883    915.54306    23700.242   0.68415001 
  758000       758000    1969.2055    1420.6722    548.53327    202.72483   -615.09397    23707.365   0.68394447 
  760000       760000    1943.8259    1398.9134    544.91254    199.61993   -1049.3929    23634.077   0.68606534 
  762000       762000    1949.0275    1366.3765      582.651    194.97703   -872.89755    23750.719   0.68269602 
  764000       764000    1858.3844    1353.8922    504.49225    193.19556    490.69417     22853.61   0.70949496 
  766000       766000    1962.2677    1418.4443    543.82343    202.40692    573.64461    23154.755   0.70026743 
  768000       768000     1951.645    1429.3041     522.3409    203.95658    879.81809    23079.417   0.70255333 
  770000       770000    1912.5417    1394.3363    518.20545    198.96679   -43.200757    23127.733   0.70108561 
  772000       772000    1967.3901    1406.5931    560.79704     200.7158    1250.6026    23334.253   0.69488064 
  774000       774000    1976.1976    1419.4009    556.79671    202.54343     196.3477    23616.161   0.68658582 
  776000       776000    1954.7916    1393.4832    561.30848    198.84505   -662.39781    23099.554   0.70194087 
  778000       778000    1973.5812    1401.2517    572.32952     199.9536    115.81716    23380.677   0.69350093 
  780000       780000    1953.3945    1379.8549    573.53965    196.90034   -1376.7697    23917.579   0.67793319 
  782000       782000    1943.8707    1388.7721    555.09856    198.17281   -1139.0525    23673.568   0.68492088 
  784000       784000    1940.9457     1371.843     569.1027    195.75709    444.47934    23748.546   0.68275846 
  786000       786000    1908.1547    1412.2175    495.93719    201.51838    449.05424    23246.794   0.69749494 
  788000       788000    1911.4339    1375.0097     536.4242    196.20896    -946.4234     23410.52   0.69261685 
  790000       790000    1969.3183    1410.2962     559.0221    201.24422    220.37257    23766.442   0.68224436 
  792000       792000    2036.1388    1428.7361    607.40276    203.87552    199.63373    23685.655   0.68457135 
  794000       794000    1939.3594    1399.3739    539.98545    199.68564   -1316.5478     23708.35   0.68391604 
  796000       796000    1947.7228     1410.006    537.71682    201.20281    2012.7164    23263.521   0.69699341 
  798000       798000    1932.7686    1445.6583    487.11028    206.29027    470.47957    23123.176   0.70122378 
  800000       800000    1937.7975    1413.5671    524.23041    201.71096   -222.34367    23237.536    0.6977728 
  802000       802000    1973.0044    1418.7983    554.20614    202.45743   -374.47608    23791.005   0.68153997 
  804000       804000    1986.7445    1380.9714    605.77312    197.05967     911.3984    23313.832   0.69548931 
  806000       806000    1950.4747    1415.8284    534.64633    202.03364    938.57867    23940.296   0.67728992 
  808000       808000     1904.243    1402.8365     501.4065    200.17975    32.511128    23252.266   0.69733078 
  810000       810000    1899.5335    1388.6106    510.92296    198.14975   -1388.6706    23357.316   0.69419452 
  812000       812000     1966.075    1441.5204    524.55461     205.6998    520.15369    23357.745   0.69418177 
  814000       814000    1960.5073    1404.1266    556.38065    200.36384    903.42895    23548.385    0.6885619 
  816000       816000    1935.8237    1394.4035    541.42025    198.97638   -455.31322    23054.309   0.70331846 
  818000       818000    1962.2608    1393.7714     568.4894    198.88619    558.94822    23460.897   0.69112962 
  820000       820000    1888.0805    1363.3437    524.73676    194.54426   -211.60511    23282.283   0.69643173 
  822000       822000    1951.2441    1415.9433    535.30076    202.05004    381.32709    23167.124   0.69989356 
  824000       824000     1874.446    1391.1097    483.33624    198.50637     345.1005    23137.044   0.70080348 
  826000       826000    1936.1407    1393.7453    542.39536    198.88246    65.715116    23326.323   0.69511688 
  828000       828000    1948.3858    1381.7563    566.62944    197.17167    642.02365    23036.667   0.70385706 
  830000       830000    1927.4731    1406.4632    521.00996    200.69725    257.20242    23268.244   0.69685195 
  832000       832000     1966.274    1442.0185    524.25555    205.77087   -562.26618    23441.439   0.69170332 
  834000       834000    1990.4518    1420.1437    570.30815    202.64941   -425.76625    23372.489   0.69374388 
  836000       836000    1920.1619    1415.9776    504.18431    202.05493   -152.28879    23343.659   0.69460067 
  838000       838000      1900.42    1381.5442    518.87585    197.14141    516.45487      23359.1   0.69414151 
  840000       840000    1970.4904    1431.2172    539.27316    204.22957    68.156766    23253.269   0.69730072 
  842000       842000    1950.6047     1388.412    562.19275    198.12141   -551.92606    23294.824   0.69605682 
  844000       844000     1907.826    1371.9933    535.83268    195.77853    1017.3146    23330.302   0.69499833 
  846000       846000    1969.4704    1412.3518    557.11859    201.53754     27.33266    23155.103    0.7002569 
  848000       848000     1911.266    1375.8097    535.45635    196.32311    219.21618    23433.574   0.69193546 
  850000       850000     1947.649    1394.3187     553.3303    198.96428   -737.48577    23430.727   0.69201953 
  852000       852000    1940.2647    1395.1392    545.12549    199.08136   -695.08196    23434.216    0.6919165 
  854000       854000    1908.7619    1382.3614    526.40042    197.25803    761.74803    23465.886   0.69098268 
  856000       856000    1878.6012    1381.2242    497.37696    197.09575     976.5673    23134.716     0.700874 
  858000       858000    1934.1545     1418.904    515.25051    202.47252   -23.584567    23121.096   0.70128688 
  860000       860000     1859.351    1395.7783    463.57277    199.17256    1312.2691    22904.055   0.70793234 
  862000       862000    1922.0059    1384.5509    537.45508    197.57045   -1214.1396    23378.428   0.69356764 
  864000       864000    1965.9197    1409.1039    556.81581    201.07407   -97.621281    23395.047   0.69307494 
  866000       866000    1964.7593    1405.6239    559.13541    200.57749    691.04493    23725.383   0.68342504 
  868000       868000    1988.4153    1445.6231    542.79217    206.28524     -282.867     23739.58   0.68301632 
  870000       870000    2004.5469    1442.6228    561.92413     205.8571   -452.25333     23328.25   0.69505945 
  872000       872000    1965.4614    1448.4924    516.96905    206.69467   -960.49025    23302.192   0.69583673 
  874000       874000    1908.2648    1401.4974    506.76742    199.98866   -601.91842     23135.55   0.70084872 
  876000       876000     1922.265    1379.2901    542.97492    196.81976    -1.600182    23319.589    0.6953176 
  878000       878000     1937.112    1416.2885    520.82347     202.0993   -290.96938    23706.547   0.68396807 
  880000       880000    1937.4631    1413.0538    524.40928    201.63772   -69.769987     23334.86   0.69486257 
  882000       882000    1965.9956    1403.6707    562.32491    200.29879   -1708.2254    23537.959   0.68886689 
  884000       884000    1976.1412    1419.3055    556.83564    202.52982   -1553.7893    23294.521   0.69606586 
  886000       886000    1959.3572     1416.807    542.55021    202.17328   -178.22255    23422.089   0.69227474 
  888000       888000    1930.8538    1419.5933    511.26059    202.57087   -511.63729    22958.626   0.70624962 
  890000       890000    1942.0362    1454.0959    487.94032    207.49428    319.42331    23394.046   0.69310461 
  892000       892000    1908.8021    1359.3838    549.41837    193.97919   -1408.2179    23406.706   0.69272973 
  894000       894000    1896.6932    1350.9373    545.75595    192.77391   -218.37679    23605.649   0.68689157 
  896000       896000    1951.4635    1392.1994    559.26412    198.66186   -658.77461    23769.618    0.6821532 
  898000       898000    1924.3059    1388.4558     535.8501    198.12768   -971.17165    23374.612   0.69368087 
  900000       900000    1919.6797     1383.991    535.68868    197.49056    754.05541    23298.898   0.69593511 
  902000       902000     1981.475    1442.9929    538.48211    205.90991    329.62569    23515.892   0.68951333 
  904000       904000    1906.0019    1375.9582    530.04374     196.3443   -42.524804    23494.167   0.69015091 
  906000       906000    1922.0837    1396.2305    525.85321    199.23709    1296.9799    23017.469   0.70444412 
  908000       908000    1862.3006    1386.1988    476.10187     197.8056    1964.0013    22991.156   0.70525035 
  910000       910000    2014.4445    1464.2276    550.21683    208.94004   -502.82457    23444.658   0.69160833 
  912000       912000    1882.1219    1402.5506    479.57125    200.13895    514.27473    23247.482   0.69747429 
  914000       914000    1962.4637    1381.1124    581.35134    197.07979   -1290.5924    23535.064   0.68895165 
  916000       916000    1925.6781    1426.6605    499.01757    203.57935    354.18595    23389.572   0.69323719 
  918000       918000    1953.7152    1399.4531    554.26208    199.69695   -1126.8235     23426.52   0.69214383 
  920000       920000    1917.7158    1379.5814     538.1344    196.86133    818.63644    23772.947   0.68205766 
  922000       922000     1863.695    1389.6095    474.08552    198.29229    1660.7439    23102.549   0.70184988 
  924000       924000    1941.1255    1430.3792    510.74636    204.10998    831.64165    23392.249   0.69315785 
  926000       926000    1942.5264    1399.2407    543.28573    199.66664    766.50526    23278.183   0.69655441 
  928000       928000     1874.018    1391.8752    482.14272    198.61561    913.87328    23205.539   0.69873495 
  930000       930000    1988.4028    1417.0355     571.3673    202.20589     776.7603    23144.347   0.70058234 
  932000       932000    1968.0586    1391.0122    577.04638    198.49246     1294.696    23468.515   0.69090528 
  934000       934000    1944.5689    1405.9206    538.64833    200.61983   -773.14602    23413.953    0.6925153 
  936000       936000    1908.0353     1377.377    530.65827    196.54677    496.29719     23394.01   0.69310567 
  938000       938000    1930.4786    1416.6634    513.81515    202.15279    -250.4473    23625.233   0.68632217 
  940000       940000    1896.7324    1403.0464    493.68595     200.2097    2526.1138    23063.361    0.7030424 
  942000       942000    2034.7037    1429.8067    604.89703    204.02829   -306.05377    23635.585   0.68602157 
  944000       944000    1920.3475    1397.7503    522.59722    199.45396    458.60481    23289.909   0.69620372 
  946000       946000    1980.2527    1405.0442    575.20854    200.49478   -185.08983    23814.624   0.68086404 
  948000       948000    1945.9098    1415.2648    530.64497    201.95322   -702.27165    23341.874   0.69465377 
  950000       950000    1960.9645    1413.4535    547.51102    201.69475   -598.67049    23583.998   0.68752214 
  952000       952000    1870.3633    1371.2979    499.06548    195.67929   -2841.1408    23315.125   0.69545073 
  954000       954000    1940.7969    1391.4837    549.31324    198.55974    1021.8898    23260.569   0.69708188 
  956000       956000    1957.2133    1414.8375    542.37574    201.89224    23.054799    23073.194    0.7027428 
  958000       958000    1899.0641     1397.914    501.15012    199.47731   -575.77094    23198.931   0.69893396 
  960000       960000    1920.2004    1381.3852    538.81525    197.11871   -1420.0037    23660.191    0.6853081 
  962000       962000    1979.9537    1426.0876    553.86605     203.4976    622.56595     23595.48   0.68718758 
  964000       964000    1888.7238    1386.6174    502.10644    197.86533     814.1932    23452.237   0.69138484 
  966000       966000    1988.5311     1452.928    535.60311    207.32762    3.9319385     23167.66   0.69987738 
  968000       968000    1930.1597     1406.852    523.30773    200.75274   -279.37155     23178.54   0.69954884 
  970000       970000    1975.8474     1425.813    550.03441    203.45841    949.82715    22796.907   0.71125969 
  972000       972000    1877.3486    1358.3954    518.95318    193.83816    65.690217    23400.986   0.69289906 
  974000       974000    1926.6524    1397.4279    529.22454    199.40795    559.88099     23135.86   0.70083934 
  976000       976000    2000.4506     1454.362    546.08854    207.53225   -555.44261    23359.919   0.69411716 
  978000       978000    1913.7519    1398.6466    515.10537    199.58185   -1649.1068     23687.09   0.68452988 
  980000       980000      1914.23    1393.8855    520.34449    198.90246   -909.07718    23063.228   0.70304646 
  982000       982000    1937.1114    1419.8094    517.30196    202.60171    1156.7182    22946.116   0.70663467 
  984000       984000    1994.9522    1428.2554    566.69687    203.80693    390.26577    23395.763   0.69305375 
  986000       986000    1967.1462    1420.3565    546.78971    202.67979    1144.0515    23624.988   0.68632926 
  988000       988000    1951.8506    1417.2247    534.62589    202.23289   -70.617598    23436.699    0.6918432 
  990000       990000    1949.4007    1384.7183    564.68249    197.59433    1111.5946    22971.032   0.70586821 
  992000       992000    1901.7116    1428.6708    473.04078    203.86621    1416.8745    22999.499   0.70499452 
  994000       994000    1935.0008    1383.9168    551.08394    197.47997    1136.0902    23303.854   0.69578709 
  996000       996000    1922.1673    1344.3076    577.85972    191.82787    266.80223     23295.93   0.69602376 
  998000       998000    1899.4455      1377.31     522.1355     196.5372    1374.2375    23127.125   0.70110406 
 1000000      1000000    1993.1052    1420.0646    573.04056    202.63814    -898.7455    23822.076   0.68065105 
 1002000      1002000    1908.0196    1390.5043    517.51535    198.41998   -1654.3995    23733.167    0.6832009 
 1004000      1004000    1916.1995    1390.4368    525.76267    198.41035    584.66419    23454.547   0.69131673 
 1006000      1006000     1983.728    1433.5247    550.20332    204.55884     793.8681    23426.918   0.69213205 
 1008000      1008000    1952.4845    1398.9505      553.534    199.62522   -56.749219    23722.271    0.6835147 
 1010000      1010000    1961.8871    1406.3731    555.51406     200.6844    255.77664    23734.653   0.68315813 
 1012000      1012000    1918.3213    1408.8033    509.51798    201.03119   -875.47612    23481.423   0.69052547 
 1014000      1014000    1985.6341    1420.3168    565.31731    202.67412    536.87251    23176.469   0.69961134 
 1016000      1016000    1950.3868    1395.4079    554.97886    199.11971   -353.49358    23172.419   0.69973363 
 1018000      1018000    1921.3065    1393.6238     527.6827    198.86513    492.73646    23494.804    0.6901322 
 1020000      1020000    1972.8196    1419.7709    553.04875    202.59621    941.20479    23647.444   0.68567751 
 1022000      1022000    1906.5249    1378.1424    528.38248    196.65598    821.83862    23450.315   0.69144151 
 1024000      1024000    1965.1931    1427.9431    537.25003    203.76236    273.62634    23567.125   0.68801439 
 1026000      1026000     2070.401    1465.0224    605.37862    209.05345    240.52014    23348.509   0.69445639 
 1028000      1028000    1941.4814    1404.3676    537.11383    200.39822    151.30662    23595.278   0.68719348 
 1030000      1030000    1909.3713     1361.929    547.44224    194.34239   -8.8577237    23451.216   0.69141493 
 1032000      1032000    1979.9875    1441.3866     538.6009    205.68071   -492.65266    23490.223   0.69026679 
 1034000      1034000    1983.2319    1443.7419    539.49001     206.0168    409.86835    23305.709   0.69573171 
 1036000      1036000    1902.0148    1395.1168    506.89801    199.07817    1521.7554    22997.251   0.70506344 
 1038000      1038000     2047.671    1455.9501    591.72093    207.75886    1863.8738    23774.017   0.68202698 
 1040000      1040000    1944.3387    1426.0763    518.26239    203.49598    427.65009    23395.756   0.69305393 
 1042000      1042000    1934.7508    1385.0974    549.65332    197.64844    -1562.445      23824.5   0.68058179 
 1044000      1044000    1936.1852    1390.0344    546.15081    198.35293    175.68038    23220.566   0.69828276 
 1046000      1046000    1902.2482    1386.2698    515.97841    197.81573   -1023.4983    23352.502   0.69433764 
 1048000      1048000    1932.4516    1396.1032    536.34837    199.21893   -800.11453    23452.022   0.69139117 
 1050000      1050000    1955.9544    1363.1049     592.8495    194.51019    148.06168    23322.285   0.69523725 
 1052000      1052000    1949.0641    1381.0471    568.01695    197.07048   -1647.7731     23220.39   0.69828807 
 1054000      1054000     1861.664    1366.4262    495.23774    194.98413   -163.75344    23190.296   0.69919423 
 1056000      1056000    1914.8825     1401.508    513.37454    199.99017    611.36371    23277.141   0.69658557 
 1058000      1058000    2014.7547    1446.6479    568.10683    206.43147   -1198.8702    23672.053    0.6849647 
 1060000      1060000    1944.1681    1411.1469    533.02119    201.36561    490.26119    23217.528   0.69837412 
 1062000      1062000    2018.2628    1433.2297    585.03316    204.51674   -425.16048    23689.996   0.68444591 
 1064000      1064000    1893.5109     1377.795    515.71599    196.60641    316.17116    23172.959   0.69971733 
 1066000      1066000    1824.1937    1385.6292     438.5644    197.72433   -145.86535     22860.35   0.70928577 
 1068000      1068000    1951.2975    1385.5578    565.73968    197.71413   -628.29973    23356.213    0.6942273 
 1070000      1070000     1960.612    1399.4538    561.15816    199.69705   -451.97552    23613.726    0.6866566 
 1072000      1072000    1956.7078    1388.3187    568.38911     198.1081   -599.42057    23541.001   0.68877788 
 1074000      1074000    1886.5969    1382.3474    504.24948    197.25602   -413.28463    23506.659   0.68978417 
 1076000      1076000    1904.2337    1395.0388    509.19481    199.06705    182.88439    23500.335   0.68996979 
 1078000      1078000    1930.2418    1389.9535    540.28826    198.34139   -1085.1152     23240.82   0.69767423 
 1080000      1080000    1987.5834    1393.1074      594.476    198.79144   -1424.5945    23674.238    0.6849015 
 1082000      1082000    1957.6768     1409.232    548.44481    201.09236   -1395.4432    23425.511   0.69217363 
 1084000      1084000    1907.3978    1390.8654    516.53247    198.47151   -48.882768    23361.237   0.69407801 
 1086000      1086000    1960.0098    1391.8254    568.18442     198.6085    699.44101    23540.201   0.68880129 
 1088000      1088000    1916.9409    1376.0449    540.89596    196.35668   -1220.9748    23321.911   0.69524838 
 1090000      1090000    2008.1449    1407.4782    600.66665     200.8421    184.41314    23705.054   0.68401113 
 1092000      1092000    1961.9145    1415.1289    546.78561    201.93383    387.07011    23469.402   0.69087915 
 1094000      1094000    1945.6884     1407.904    537.78437    200.90286    611.15806     23692.04   0.68438685 
 1096000      1096000    1979.9488    1413.1657    566.78309    201.65368    53.445355    23803.513   0.68118186 
 1098000      1098000    1965.4585    1421.5776    543.88084    202.85403   -348.87298    23480.663   0.69054785 
 1100000      1100000    1923.9475    1420.6772    503.27028    202.72555    1209.7415    23396.088   0.69304411 
 1102000      1102000    1986.3987    1383.0547    603.34405    197.35695   -138.33426    23830.051   0.68042325 
 1104000      1104000    2015.8943    1428.5926    587.30175    203.85504   -60.572633    23715.212   0.68371815 
 1106000      1106000    1971.6501    1430.9222    540.72792    204.18747    296.19419    23332.211   0.69494146 
 1108000      1108000    1919.8802    1414.3857    505.49447    201.82777    -236.2795    23466.337   0.69096939 
 1110000      1110000    2027.1773    1455.8394     571.3379    207.74306    1638.3971    23419.426   0.69235348 
 1112000      1112000    1935.4332    1388.0426    547.39066     198.0687     1412.477    23713.433   0.68376945 
 1114000      1114000    2000.3246    1402.9189    597.40567     200.1915   -757.76479    24033.603   0.67466044 
 1116000      1116000    1957.5158    1399.9401    557.57574    199.76643   -501.95825    23637.838   0.68595619 
 1118000      1118000    1986.3185    1430.4561     555.8624    204.12096   -495.24199    23645.295   0.68573986 
 1120000      1120000    1910.6424    1361.0872    549.55516    194.22227    205.00837    23382.627   0.69344307 
 1122000      1122000     1965.892    1434.8107     531.0813    204.74235   -419.54443    23274.406   0.69666743 
 1124000      1124000    2017.3282    1412.2362      605.092    201.52105    -608.9306    23709.135   0.68389341 
 1126000      1126000    1871.2184    1337.4103    533.80805    190.84366    1434.1193    23562.657   0.68814484 
 1128000      1128000    1868.5712    1382.9833    485.58797    197.34676    147.80715    23122.898   0.70123222 
 1130000      1130000    1944.6001    1408.3401    536.25999    200.96509   -448.80562    23728.628   0.68333159 
 1132000      1132000    1985.2577    1438.7664    546.49135    205.30681   -403.46148    23880.453   0.67898717 
 1134000      1134000    1982.7725    1449.2768    533.49572    206.80661   -1019.0536    23354.547   0.69427684 
 1136000      1136000    1892.5469     1370.544    522.00297    195.57171   -817.14492    23564.859   0.68808055 
 1138000      1138000    1978.1389    1465.2729    512.86597     209.0892   -350.59884     23218.68   0.69833947 
 1140000      1140000    1935.5986    1376.0434    559.55515    196.35647   -340.27063    23471.569   0.69081539 
 1142000      1142000     1933.438    1388.0832    545.35473     198.0745   -828.10475    23117.279   0.70140265 
 1144000      1144000    1936.9016    1361.1993    575.70231    194.23826     111.0711    23140.866   0.70068773 
 1146000      1146000    2004.3679    1432.4479    571.92004    204.40518   -2157.0441    23575.647   0.68776569 
 1148000      1148000    1931.6851    1408.0601    523.62498    200.92513    1180.4304     23702.87   0.68407417 
 1150000      1150000    1997.0253    1411.7205    585.30483    201.44746    803.46145    23600.092   0.68705328 
 1152000      1152000    1884.8669    1353.4906    531.37627    193.13826    396.98787    23572.414      0.68786 
 1154000      1154000    1861.2248    1364.1607    497.06413    194.66085   -1287.1249    23306.584   0.69570561 
 1156000      1156000    1941.1068    1393.7041    547.40268    198.87658   -247.23893    23285.244   0.69634318 
 1158000      1158000    1935.9068    1388.6295    547.27723    198.15246    95.944799     23338.94   0.69474109 
 1160000      1160000    1929.4673    1432.8659    496.60139    204.46483    1195.6524    23174.866   0.69965975 
 1162000      1162000    1949.0402    1442.3713    506.66886    205.82122    784.68187    23539.528   0.68882099 
 1164000      1164000    1916.3825    1357.4006    558.98194     193.6962   -938.90744    23351.132   0.69437835 
 1166000      1166000    1979.5547    1429.6812    549.87349    204.01038    199.24676    23045.856   0.70357644 
 1168000      1168000    1963.5936    1399.3186    564.27493    199.67776    220.06214    23388.937   0.69325601 
 1170000      1170000     1950.624    1441.0325    509.59153    205.63017    652.74153    23505.347   0.68982266 
 1172000      1172000    1905.7994    1372.5595    533.23992    195.85932   -36.389147    23110.813   0.70159891 
 1174000      1174000    1939.1621      1402.58    536.58212    200.14314    649.40128    23512.564   0.68961093 
 1176000      1176000    1885.4852     1390.076    495.40916    198.35887    785.15336    23124.912   0.70117114 
 1178000      1178000    1926.6494    1390.9942    535.65525    198.48988   -205.73097    23380.682   0.69350078 
 1180000      1180000    1927.1831    1392.4184    534.76469    198.69311    313.50995    23502.356   0.68991044 
 1182000      1182000    1948.7572    1424.1886    524.56858    203.22661    14.071769    23421.577    0.6922899 
 1184000      1184000    1985.2997    1381.5211    603.77863    197.13811   -457.83214    24063.741   0.67381548 
 1186000      1186000    1939.9664    1396.8638     543.1026    199.32746   -698.22977    23792.898   0.68148575 
 1188000      1188000    1982.9909    1413.1255    569.86537    201.64795   -299.36598    24057.655   0.67398594 
 1190000      1190000    2010.9241    1409.6832    601.24085    201.15674   -1189.7854    23766.305   0.68224829 
 1192000      1192000    1952.7688    1407.3775    545.39125    200.82773    508.62731    23630.525   0.68616845 
 1194000      1194000    1988.2324    1418.9714    569.26101    202.48214   -297.51269    23931.696   0.67753328 
 1196000      1196000    1943.2111    1389.1255    554.08564    198.22323    68.648742    23569.887   0.68793376 
 1198000      1198000    1975.5108     1385.115    590.39579    197.65095    350.07109    23217.118   0.69838647 
 1200000      1200000    1914.2457    1385.9512    528.29441    197.77028   -302.02397    23320.868   0.69527946 
 1202000      1202000    1909.2832    1349.8241     559.4591    192.61506    986.93831    23793.635   0.68146464 
 1204000      1204000    1892.6071    1387.6977    504.90942    198.01948    1709.8357    23593.991   0.68723094 
 1206000      1206000    1958.7216    1406.3615     552.3601    200.68275    850.88019    23921.932   0.67780985 
 1208000      1208000    1978.3048    1428.4214    549.88339    203.83062    915.54684    23593.244   0.68725272 
 1210000      1210000    1959.5916    1394.0013    565.59037    198.91899    1974.0938    23713.388   0.68377073 
 1212000      1212000    1909.3622    1399.3646    509.99761    199.68431    1319.9175    23249.383   0.69741727 
 1214000      1214000    1936.2972    1413.7973    522.49995    201.74381   -1504.5427    23560.495     0.688208 
 1216000      1216000    1964.6846    1439.4663    525.21827    205.40668   -456.68542    23548.258   0.68856562 
 1218000      1218000    1944.2221    1404.8818    539.34036    200.47159   -1575.8367    23483.494   0.69046457 
 1220000      1220000    2044.0286    1428.3211    615.70749    203.81631    110.95963    23499.596   0.68999148 
 1222000      1222000    1974.3277    1421.1056    553.22208    202.78667   -1399.5087    23807.569   0.68106581 
 1224000      1224000    1953.4832    1410.8864    542.59682    201.32844   -731.31619    23609.869   0.68676877 
 1226000      1226000    1963.2175    1391.6845    571.53292     198.5884    913.79315    23851.155   0.67982121 
 1228000      1228000    1934.3519    1403.7023    530.64952    200.30329   -1400.1284    23425.033   0.69218775 
 1230000      1230000    1977.3428    1423.5636    553.77919    203.13742    829.46635    23265.345   0.69693876 
 1232000      1232000    1948.2325    1425.0502    523.18225    203.34956   -660.44388    23742.085   0.68294427 
 1234000      1234000     1892.286    1382.8057    509.48025    197.32142   -694.77436    23282.672   0.69642009 
 1236000      1236000    1983.9201    1472.7973    511.12281    210.16289    427.21783    23182.085   0.69944187 
 1238000      1238000     1916.104    1399.1314    516.97257    199.65104    107.05599    23454.995   0.69130354 
 1240000      1240000    1941.1413    1422.6049    518.53644    203.00062    58.881879    23383.184   0.69342655 
 1242000      1242000    1928.1759    1386.8356     541.3403    197.89646   -677.12437    23297.308   0.69598261 
 1244000      1244000    1956.3965    1401.3137    555.08273    199.96245   -67.764053    23661.123   0.68528113 
 1246000      1246000    1876.9801    1384.4361    492.54398    197.55408    1174.9377    23762.086   0.68236942 
 1248000      1248000    1938.0084    1386.6815    551.32688    197.87448   -595.78953    23439.816   0.69175119 
 1250000      1250000    1935.1092     1390.757    544.35218    198.45604    -718.3611     23904.06   0.67831662 
 1252000      1252000    1959.4475    1411.5237    547.92385    201.41937   -425.35601     23536.96   0.68889615 
 1254000      1254000     1950.419    1372.3887    578.03027    195.83495    1267.9422    23523.604   0.68928726 
 1256000      1256000    1917.3879    1384.8841    532.50374      197.618    583.51672    23482.963   0.69048019 
 1258000      1258000    1951.8437    1401.8697    549.97401    200.04178    152.30323    23639.692   0.68590237 
 1260000      1260000    1932.8057    1387.6327    545.17298    198.01022     508.1226    23518.182   0.68944618 
 1262000      1262000    2016.5552    1442.8967    573.65851    205.89619    2386.1016    23949.857   0.67701954 
 1264000      1264000    1982.1311    1454.9698    527.16122    207.61898    359.79375    23519.749   0.68940024 
 1266000      1266000    1986.8273    1411.8528    574.97455    201.46633   -464.55273    23823.596   0.68060763 
 1268000      1268000    1960.2034    1429.3584    530.84504    203.96432   -1600.1149    23491.251   0.69023659 
 1270000      1270000    1961.2009      1419.27    541.93092    202.52474   -1358.2045    23752.233   0.68265249 
 1272000      1272000    2055.4405    1469.7001    585.74031    209.72095    749.93328    23748.088   0.68277163 
 1274000      1274000    1953.0465     1417.099    535.94748    202.21495     650.0705    23754.268     0.682594 
 1276000      1276000    1942.7565    1407.3914    535.36519     200.8297   -948.29223    23787.611    0.6816372 
 1278000      1278000     1988.802    1408.9653    579.83671     201.0543   -354.01496    23680.941   0.68470763 
 1280000      1280000    2032.4014    1425.5968    606.80465    203.42755   -1817.1462    24106.992   0.67260655 
 1282000      1282000    1983.3382    1415.4828    567.85543    201.98432    230.17127    24248.344    0.6686857 
 1284000      1284000    1928.2097    1425.6345    502.57519    203.43294   -1188.8904    23417.253   0.69241773 
 1286000      1286000      1975.31    1429.4697    545.84035     203.9802   -1008.5777    23532.614   0.68902336 
 1288000      1288000    2000.6029    1441.0414    559.56155    205.63144   -326.64684    23860.503   0.67955486 
 1290000      1290000    1966.2898    1415.6313     550.6585    202.00552     429.3035    23727.021   0.68337786 
 1292000      1292000    1958.3301    1390.1271    568.20297    198.36616    662.81946    23574.399   0.68780208 
 1294000      1294000    1946.0271    1393.9749     552.0522    198.91523   -1068.4161    23767.004   0.68222822 
 1296000      1296000    1979.6532    1410.8027    568.85053    201.31649    975.09266    23310.592   0.69558598 
 1298000      1298000    1917.8095    1363.1779    554.63165     194.5206   -1962.5662    23792.493   0.68149736 
 1300000      1300000     1977.389    1406.2329    571.15614    200.66439    1075.2557    23622.309   0.68640711 
 1302000      1302000    1958.7809    1402.0688    556.71203     200.0702    490.63053    23577.596   0.68770882 
 1304000      1304000    1975.7401    1393.1357    582.60438    198.79548    157.52179    23773.937   0.68202928 
 1306000      1306000    1951.4941    1401.5465    549.94758    199.99566   -984.14572    23595.707   0.68718098 
 1308000      1308000    1896.0791    1371.6787    524.40045    195.73364   -1536.8539    23324.356   0.69517549 
 1310000      1310000    1971.2258    1405.7814     565.4444    200.59997    518.84463    23706.693   0.68396386 
 1312000      1312000    1965.2853    1410.7098    554.57546    201.30324    551.21861    23573.135   0.68783897 
 1314000      1314000    1937.3906    1408.4613    528.92925    200.98238    967.38208    23199.444   0.69891852 
 1316000      1316000    1980.6641    1429.6376     551.0265    204.00416    539.64191    23398.097   0.69298459 
 1318000      1318000    1894.8021    1374.2934    520.50869    196.10674   -502.76149    23692.266   0.68438034 
 1320000      1320000    1960.8187    1411.5258    549.29289    201.41968    66.537527    23696.829   0.68424856 
 1322000      1322000    1929.5974    1397.2482    532.34917    199.38232    646.70064    23463.298    0.6910589 
 1324000      1324000    1996.1451      1442.01    554.13508    205.76966   -1259.5414    23180.635   0.69948562 
 1326000      1326000    1922.7869    1382.2164    540.57054    197.23732    605.70336    23283.043   0.69640902 
 1328000      1328000    1889.0966    1375.3974    513.69915    196.26428    391.58644    23458.565   0.69119833 
 1330000      1330000    1949.4231    1410.2585     539.1646    201.23883    1408.0419    23338.889   0.69474263 
 1332000      1332000    1937.8553    1406.1254    531.72994    200.64905    353.54961    23310.101   0.69560062 
 1334000      1334000    1903.1474    1393.9224    509.22508    198.90773    254.20046     23112.82   0.70153797 
 1336000      1336000    2001.9514    1433.1322    568.81917    204.50284   -433.60393    23548.306   0.68856421 
 1338000      1338000    2003.0608    1422.4605    580.60038    202.98001   -699.75775    23816.593   0.68080775 
 1340000      1340000    1917.2406    1379.4796    537.76095     196.8468    253.47593     23452.91   0.69136499 
 1342000      1342000    1941.6544    1367.6941    573.96033    195.16504    1527.6396      23410.5   0.69261746 
 1344000      1344000    1954.5128    1417.9869    536.52586    202.34165    921.79832    23357.856   0.69417848 
 1346000      1346000    1944.0365    1391.6533    552.38327    198.58394    153.57765    23094.506   0.70209431 
 1348000      1348000    1929.4392    1398.9798    530.45939    199.62941   -338.13561    23473.727   0.69075187 
 1350000      1350000    1965.9445    1416.4794    549.46511    202.12653    620.41656    23522.044   0.68933298 
 1352000      1352000    1959.3451    1433.7283    525.61681     204.5879    201.62603    23238.022   0.69775822 
 1354000      1354000    1931.7071    1386.4957     545.2114    197.84796   -400.64993    23548.269   0.68856531 
 1356000      1356000     2008.347    1443.8312    564.51586    206.02953   -404.33743    23330.007   0.69500712 
 1358000      1358000    1895.0553    1349.7443    545.31094    192.60368   -1652.4837    23727.071   0.68337644 
[...]
 4682000      4682000    1983.8848    1383.0537    600.83108    197.35681    709.83932    23752.969   0.68263132 
 4684000      4684000    1945.1291    1421.5859    523.54319    202.85522   -318.51252    23686.632   0.68454313 
 4686000      4686000    1929.8565    1377.3718    552.48473    196.54602    2042.4493     23422.83   0.69225286 
 4688000      4688000    1960.0179    1379.7123    580.30564       196.88   -1381.6288    24045.499   0.67432664 
 4690000      4690000    1948.1863    1362.6437    585.54256    194.44438    101.98684        23792   0.68151146 
 4692000      4692000    1972.6568    1423.4837    549.17315    203.12602    156.20664    23831.926   0.68036973 
 4694000      4694000    1934.3937    1387.4835     546.9102    197.98892   -254.83666    23829.628   0.68043533 
 4696000      4696000    2007.2854    1453.4289    553.85651     207.3991   -1716.5563    23609.721   0.68677309 
 4698000      4698000    1921.5539    1406.4569    515.09703    200.69636    1038.3961    23298.459   0.69594821 
 4700000      4700000    1914.3243    1388.9764    525.34784    198.20196    1103.5897    23623.566   0.68637058 
 4702000      4702000    1924.6797    1391.8028    532.87695    198.60527   -738.93106    23642.628   0.68581721 
 4704000      4704000    1936.3472    1386.5019    549.84534    197.84885    -1177.129    23776.334   0.68196051 
 4706000      4706000    1958.2814    1414.3929    543.88849     201.8288    718.22922    23382.398   0.69344989 
 4708000      4708000    1976.2418    1435.8862    540.35555    204.89582    134.08965     23537.64   0.68887623 
 4710000      4710000    1995.7903     1450.142     545.6483    206.93007    572.66291     23231.04   0.69796793 
 4712000      4712000    1904.6055    1393.4808    511.12473    198.84472    171.81613    23349.828   0.69441713 
 4714000      4714000    1937.6557    1448.0339    489.62179    206.62925    612.01764    23007.738   0.70474207 
 4716000      4716000    1881.6402    1356.3691    525.27115      193.549    -87.02156    23464.749   0.69101617 
 4718000      4718000    1919.5995    1393.0916    526.50792    198.78917   -24.050474    23611.495   0.68672147 
 4720000      4720000    1956.7527    1415.6301    541.12265    202.00534   -940.63051    23285.574   0.69633332 
 4722000      4722000     1928.352    1381.3247    547.02723    197.11009   -970.85674    23567.583     0.688001 
 4724000      4724000    1933.9004    1368.7211    565.17932    195.31159   -222.63615    23484.399   0.69043799 
 4726000      4726000    1962.1331     1430.448    531.68519     204.1198   -25.756835     23395.61   0.69305827 
 4728000      4728000     1932.175     1414.332    517.84304     201.8201    1514.7056    23142.751   0.70063067 
 4730000      4730000    1948.9671    1405.5828    543.38422    200.57163    178.79461    23113.495    0.7015175 
 4732000      4732000    1967.2574      1423.86    543.39736    203.17973    1059.6827     23698.29   0.68420637 
 4734000      4734000    2007.2427    1424.0392    583.20343    203.20529    621.18256     23339.43   0.69472651 
 4736000      4736000     2010.495    1402.7433    607.75171    200.16645   -919.82264    23706.783   0.68396125 
 4738000      4738000    1952.0493    1421.6049    530.44445    202.85792    863.94328    23158.578   0.70015184 
 4740000      4740000    2017.4335    1420.2886    597.14483     202.6701    538.83101    23198.847   0.69893649 
 4742000      4742000    1946.0425    1381.2981    564.74434     197.1063   -207.64396    23519.574   0.68940537 
 4744000      4744000     1928.382    1397.4225    530.95956    199.40718    45.596073    23596.909   0.68714597 
 4746000      4746000     1962.543    1409.4216    553.12142    201.11942   -407.87087    23760.599   0.68241212 
 4748000      4748000    1977.5429    1395.8954    581.64752    199.18927    377.05341    23927.071   0.67766427 
 4750000      4750000    1962.1434    1422.9523     539.1911     203.0502    148.71264    23636.575   0.68599283 
 4752000      4752000    1929.9886    1396.8346    533.15403    199.32329    -422.2756    23904.492   0.67830435 
 4754000      4754000    1955.5155    1412.5421    542.97342    201.56469    764.27134     23467.62   0.69093164 
 4756000      4756000    1917.0329     1403.193    513.83985    200.23062   -489.64726    23604.165   0.68693473 
 4758000      4758000    1983.8941    1414.8279     569.0662    201.89087    1295.9656    23556.617   0.68832129 
 4760000      4760000    1989.1738    1407.6009    581.57296     200.8596    1399.2623    23479.245   0.69058953 
 4762000      4762000    1968.5838    1395.0191     573.5647    199.06423    330.47783    23218.585   0.69834234 
 4764000      4764000    1931.2348    1390.8597     540.3751     198.4707   -49.849754    23376.939    0.6936118 
 4766000      4766000    1938.1699    1434.3623    503.80763    204.67836   -812.41892    23213.207   0.69850413 
 4768000      4768000    1930.4966    1411.0824    519.41421    201.35641    683.28518    23368.975   0.69384819 
 4770000      4770000    1898.9093    1358.6303    540.27899    193.87168   -501.97841    23810.973   0.68096842 
 4772000      4772000    1887.0457     1378.945    508.10066    196.77051   -123.13968    23514.383   0.68955758 
 4774000      4774000     1949.389    1421.3156    528.07345    202.81664   -49.671035    23446.246   0.69156151 
 4776000      4776000    1969.2684    1402.7078    566.56064    200.16137   -804.18736    23798.236    0.6813329 
 4778000      4778000    1969.5642    1422.4034    547.16075    202.97187     938.6119    23349.942   0.69441375 
 4780000      4780000    1917.0727    1399.3539     517.7188    199.68279    631.93078    23154.451   0.70027663 
 4782000      4782000    1937.5672     1402.303     535.2642    200.10362   -55.080611    23377.196   0.69360419 
 4784000      4784000    1949.1521    1373.0604     576.0917     195.9308    453.51027    23534.954   0.68895485 
 4786000      4786000    1958.3297    1398.5092    559.82057    199.56225     647.2359    22950.709   0.70649324 
 4788000      4788000    1924.9743    1371.5442    553.43007    195.71444   -324.62531     23404.16   0.69280509 
 4790000      4790000    1905.2718    1406.3022     498.9696    200.67429   -607.18488     23527.92   0.68916084 
 4792000      4792000     1956.415    1415.7945    540.62047     202.0288    -414.0456    23404.006   0.69280963 
 4794000      4794000    1994.5273    1424.9835    569.54382    203.34004    442.51669    23331.095   0.69497471 
 4796000      4796000    1954.2569    1408.0638    546.19317    200.92565   -2115.4282    23207.449   0.69867744 
 4798000      4798000    1977.2236    1440.6866    536.53703    205.58081    296.85096    23353.805   0.69429889 
 4800000      4800000    1931.7403    1399.3992    532.34109    199.68925   -789.44611     23266.77   0.69689609 
 4802000      4802000    1933.1563    1376.0038     557.1525    196.35082   -740.42837     23319.05   0.69533368 
 4804000      4804000    1952.4683    1396.8169    555.65142    199.32077    1023.3971    23486.149   0.69038653 
 4806000      4806000    1964.7607    1436.2607    528.49996    204.94926    1181.0928    22888.345   0.70841822 
 4808000      4808000     1933.927    1424.4103    509.51677    203.25824    1454.5839    23182.684   0.69942381 
 4810000      4810000    1946.6292    1404.0156    542.61368    200.34799      877.747    23011.803   0.70461757 
 4812000      4812000    1913.2159    1438.1355    475.08042    205.21678    -75.79542    22832.521   0.71015026 
 4814000      4814000    1948.2992    1408.3145    539.98474    200.96143   -340.15077    23280.333   0.69649008 
 4816000      4816000    1910.1603    1361.7715    548.38877    194.31991    -535.0654    23060.271   0.70313661 
 4818000      4818000    1941.9226    1403.0833     538.8393    200.21496    553.00007    23157.543   0.70018314 
 4820000      4820000    1971.0939    1413.2929    557.80105    201.67183    1912.5269    23325.806    0.6951323 
 4822000      4822000    2022.2477    1444.9025    577.34522    206.18241    2749.5572    23315.458    0.6954408 
 4824000      4824000    1940.4397     1372.531    567.90869    195.85526    -693.6232    23652.949   0.68551794 
 4826000      4826000    1961.8295     1417.759    544.07052    202.30912    1192.8254    23199.183   0.69892636 
 4828000      4828000    1907.5906     1371.411    536.17958    195.69544     789.6556    23695.116   0.68429802 
 4830000      4830000    1935.2676    1402.2779    532.98974    200.10003   -205.21244    23279.839   0.69650486 
 4832000      4832000     2049.738     1454.605    595.13305    207.56692    987.34766    23789.605   0.68158009 
 4834000      4834000     2013.017     1439.158    573.85905    205.36268    45.827781    23751.421   0.68267581 
 4836000      4836000    1926.4035    1376.7439    549.65955    196.45643   -1.7520106    23475.296    0.6907057 
 4838000      4838000    1998.1566    1387.3897    610.76694    197.97554   -207.01461    24154.167   0.67129291 
 4840000      4840000    1940.9456     1374.233    566.71265    196.09812    364.08881    23644.121   0.68577389 
 4842000      4842000    2015.4652    1424.1305    591.33471    203.21831   -450.98878    23928.712   0.67761779 
 4844000      4844000    1903.8638    1402.9829    500.88087    200.20064   -457.78784     23703.07    0.6840684 
 4846000      4846000    2026.0736    1428.2106    597.86306    203.80053   -2261.4868    23707.469   0.68394146 
 4848000      4848000    1974.8744    1432.7663    542.10813    204.45062   -550.61246    23590.335   0.68733745 
 4850000      4850000    1915.4399    1370.1513    545.28859    195.51569    614.97351    23537.743   0.68887322 
 4852000      4852000    1954.6799    1427.6116    527.06834    203.71506   -213.91035    23618.433   0.68651976 
 4854000      4854000    1948.6841    1423.7078     524.9763      203.158   -459.31164    23642.005   0.68583528 
 4856000      4856000    1922.5586    1389.4246    533.13401    198.26591   -1080.1302    23664.003   0.68519771 
 4858000      4858000    1944.4175    1383.7235      560.694    197.45239    627.44353    23838.062   0.68019459 
 4860000      4860000    1966.0897      1414.02    552.06968    201.77559   -487.10407    23758.729   0.68246584 
 4862000      4862000    1969.8555    1394.1914    575.66409    198.94612   -412.12681    23744.555   0.68287322 
 4864000      4864000    1992.3065    1434.9355    557.37104    204.76015    760.96864     23220.05   0.69829827 
 4866000      4866000     1913.689     1385.772    527.91704     197.7447     81.35008    23044.691   0.70361199 
 4868000      4868000    1939.9678    1409.3322     530.6356    201.10665    951.95051    23404.055   0.69280817 
 4870000      4870000     1934.426     1356.965    577.46101    193.63404    1278.8739    23374.584    0.6936817 
 4872000      4872000    2003.4134    1425.5643    577.84919    203.42291   -1302.6531    23466.213   0.69097304 
 4874000      4874000     1951.262    1400.6502    550.61181    199.86776   -553.08059    23690.264   0.68443818 
 4876000      4876000    1925.7702     1395.406    530.36415    199.11944     156.8085    23219.156   0.69832516 
 4878000      4878000    1990.7091    1437.1084     553.6007    205.07022     557.2057    23595.223   0.68719506 
 4880000      4880000    1940.9997    1395.0775    545.92224    199.07256   -1085.4569    23274.191   0.69667389 
 4882000      4882000    1941.5384    1388.2108    553.32765    198.09271    660.14599    23451.871   0.69139563 
 4884000      4884000    1982.3151    1408.4999     573.8152    200.98789    324.15031    23888.786   0.67875032 
 4886000      4886000    1967.5436    1428.6275    538.91609    203.86002   -517.68373    23312.805   0.69551996 
 4888000      4888000    2000.4778    1448.0851    552.39271    206.63655    1568.6673    23305.051   0.69575135 
 4890000      4890000    1937.3175    1398.2278    539.08976    199.52209   -447.13059    23465.573   0.69099191 
 4892000      4892000    1853.9951    1341.5654    512.42971    191.43657    644.51534    23635.085   0.68603608 
 4894000      4894000    1916.8176    1389.5688    527.24879    198.28649    9.9131722    23629.768   0.68619044 
 4896000      4896000     1992.442    1406.0391    586.40297    200.63674     963.1738    23816.591   0.68080779 
 4898000      4898000    1965.2193    1378.5031    586.71615    196.70746   -885.64322    23691.339   0.68440713 
 4900000      4900000    1978.6433    1427.5975    551.04589    203.71304   -125.50061    23451.758   0.69139896 
 4902000      4902000    2018.2245    1461.4437     556.7808    208.54277    17.496662    23323.494    0.6952012 
 4904000      4904000    1982.0653    1403.4688    578.59655    200.26997    -93.80058    23838.076   0.68019419 
 4906000      4906000    1928.3547    1387.5053    540.84941    197.99203   -460.90275    23440.862   0.69172034 
 4908000      4908000    1891.5569     1351.808    539.74894    192.89816   -1892.7515    23523.118   0.68930153 
 4910000      4910000    1927.5179    1389.2638    538.25409    198.24297    138.26815    23225.142   0.69814518 
 4912000      4912000    1885.9241    1390.6968    495.22731    198.44745   -597.71334    23304.725    0.6957611 
 4914000      4914000    1957.9898    1394.9024    563.08744    199.04758    281.42358     23330.01   0.69500703 
 4916000      4916000    1905.5904    1389.2803    516.31012    198.24532   -1051.2238    23519.913   0.68939545 
 4918000      4918000    1967.5973    1424.4516    543.14577    203.26413    945.14896    23669.993   0.68502434 
 4920000      4920000    1871.7957    1345.4139    526.38176    191.98574   -1391.1042    23436.753   0.69184161 
 4922000      4922000    1958.8612    1402.2529    556.60836    200.09646   -1483.0148    23798.352   0.68132957 
 4924000      4924000    1973.3513    1394.3943    578.95702    198.97507    1182.2884    23500.215   0.68997331 
 4926000      4926000    1977.1332    1422.3758    554.75734    202.96794    177.80762    23416.882   0.69242869 
 4928000      4928000    2005.7376    1430.7979    574.93966    204.16974   -88.342395    23559.262     0.688244 
 4930000      4930000    1919.9715    1399.8452    520.12628     199.7529   -1296.8724    23202.935   0.69881335 
 4932000      4932000    1923.5242    1374.4072    549.11701    196.12299    143.99582    23617.653   0.68654244 
 4934000      4934000    1913.4762    1407.8187    505.65752    200.89068    25.107195    23117.688   0.70139024 
 4936000      4936000    1871.4452    1353.3178    518.12743     193.1136   -170.24677     23254.98   0.69724941 
 4938000      4938000    1956.4014    1429.2799    527.12152    203.95311   -1012.2239    22979.843   0.70559755 
 4940000      4940000    1937.7489    1386.2695     551.4794    197.81568    1133.3609    23546.202   0.68862576 
 4942000      4942000    1973.2591    1451.0344    522.22465    207.05741   -626.58961    23384.108   0.69339916 
 4944000      4944000    1997.7923      1407.69    590.10231    200.87232    502.23174    24018.782   0.67507674 
 4946000      4946000    1927.6071    1382.4862    545.12086    197.27583   -816.94218    23537.946    0.6888673 
 4948000      4948000    1972.4462     1409.897    562.54915    201.18725   -678.80371    23605.106   0.68690734 
 4950000      4950000    1927.8844    1399.1828    528.70163    199.65837     320.9353    23543.909    0.6886928 
 4952000      4952000    2006.4751    1421.0358    585.43933    202.77671   -531.59828     23659.72   0.68532175 
 4954000      4954000    1947.8503    1406.0022    541.84807    200.63148    16.872278    23685.247   0.68458314 
 4956000      4956000    1934.4976    1385.6175    548.88008    197.72265    364.84204    23694.607   0.68431271 
 4958000      4958000    1965.0273    1432.8646    532.16267    204.46464   -208.79239     23718.04   0.68363664 
 4960000      4960000    1989.4359    1435.2435    554.19239    204.80411    1469.3769    23905.378    0.6782792 
 4962000      4962000    1958.1622    1395.2246    562.93768    199.09355    335.92227     23664.26   0.68519028 
 4964000      4964000    1926.0038    1401.8814     524.1224    200.04345   -918.98906    23620.508   0.68645945 
 4966000      4966000     1992.529    1408.8211     583.7079    201.03373    1106.9653    24100.704   0.67278204 
 4968000      4968000    1934.8007    1375.4882    559.31252    196.27723   -1089.4045    23711.695   0.68381957 
 4970000      4970000    1987.8139    1454.1429    533.67104    207.50098    885.74516    23708.324   0.68391679 
 4972000      4972000    1941.0115    1404.2296    536.78189    200.37853   -1109.2957    23495.201   0.69012056 
 4974000      4974000    1957.0864    1413.5953     543.4911    201.71498   -2093.7366    23822.862   0.68062858 
 4976000      4976000    1937.4939    1395.5005    541.99339    199.13292   -1272.0945    23699.059   0.68418418 
 4978000      4978000     2015.931    1413.5749    602.35612    201.71208   -582.62252    23618.504    0.6865177 
 4980000      4980000    1912.9982    1384.6857    528.31252    197.58969    2168.3249    23181.392   0.69946278 
 4982000      4982000    1921.0593    1386.0064    535.05294    197.77815   -450.83546    23695.024   0.68430069 
 4984000      4984000    2030.3788    1440.4244    589.95446    205.54339   -548.23477    23668.165   0.68507724 
 4986000      4986000    1964.0559    1398.6829    565.37299    199.58704     -1644.68    23826.988   0.68051073 
 4988000      4988000    1933.6063    1420.9702    512.63617    202.76735    106.94934    23345.555   0.69454425 
 4990000      4990000     1952.317    1413.9786    538.33847    201.76968   -1180.4396     23761.83   0.68237678 
 4992000      4992000    1937.1884    1341.6525    595.53592      191.449   -1595.9653    23442.013   0.69168637 
 4994000      4994000    1967.3052    1422.0985    545.20677    202.92836    313.04491     23361.99   0.69405565 
 4996000      4996000     1886.276    1360.0843    526.19169    194.07916   -190.93183    23819.314   0.68072998 
 4998000      4998000    1951.2229    1431.3119    519.91093    204.24309    1252.0579    23301.277   0.69586404 
 5000000      5000000    2005.5094    1416.0795    589.42988    202.06947   -1671.2824    23654.084   0.68548505 
Loop time of 7694.58 on 30 procs for 5000000 steps with 2352 atoms

Performance: 56.143 ns/day, 0.427 hours/ns, 649.808 timesteps/s
92.8% CPU use with 30 MPI tasks x 1 OpenMP threads

MPI task timing breakdown:
Section |  min time  |  avg time  |  max time  |%varavg| %total
---------------------------------------------------------------
Pair    | 3053.6     | 3429.1     | 3694.2     | 308.0 | 44.57
Bond    | 172.73     | 175.65     | 178.97     |  11.4 |  2.28
Kspace  | 1019.8     | 1278       | 1675.1     | 526.7 | 16.61
Neigh   | 187.89     | 189.79     | 191.51     |   5.9 |  2.47
Comm    | 1979.8     | 2060.5     | 2148.3     | 103.3 | 26.78
Output  | 1.2914     | 1.2955     | 1.3649     |   1.1 |  0.02
Modify  | 210.11     | 251.27     | 312.76     | 187.8 |  3.27
Other   |            | 309        |            |       |  4.02

Nlocal:    78.4 ave 95 max 62 min
Histogram: 1 0 2 7 3 10 5 0 1 1
Nghost:    5264.27 ave 5345 max 5170 min
Histogram: 2 1 0 4 8 3 6 2 1 3
Neighs:    44722.7 ave 54835 max 36011 min
Histogram: 2 3 4 5 1 4 6 3 1 1

Total # of neighbors = 1341682
Ave neighs/atom = 570.443
Ave special neighs/atom = 9.14286
Neighbor list builds = 133036
Dangerous builds = 0
write_data ethanol_after_npt.data
Ewald initialization ...
  using 12-bit tables for long-range coulomb (src/kspace.cpp:332)
  G vector (1/distance) = 0.188693
  estimated absolute RMS force accuracy = 0.00418168
  estimated relative force accuracy = 1.2593e-05
  KSpace vectors: actual max1d max3d = 128 4 364
                  kxmax kymax kzmax  = 4 4 4



#fix 1 all nvt temp 300 300 100# iso 1.0 1.0 1000.0
#dump            DUMPxyz all xyz 1 but1_clms_20ps.xyz

#run 500000
Total wall time: 2:08:14
