LAMMPS (3 Mar 2020)
  using 1 OpenMP thread(s) per MPI task
units           real
atom_style      full
boundary        p p p


pair_style      lj/cut/coul/long 12.0
pair_modify     tail yes mix geometric
bond_style      harmonic
angle_style     harmonic
dihedral_style  opls

kspace_style    ewald 1.0e-5
#special_bonds   lj/coul 0.0 0.0 0.5

neighbor        2.0 bin
neigh_modify    every 1 delay 0 check yes

read_data       butane_after_npt.data
  orthogonal box = (3.36767 3.36767 3.36767) to (31.6323 31.6323 31.6323)
  2 by 3 by 4 MPI processor grid
  reading atoms ...
  2352 atoms
  reading velocities ...
  2352 velocities
  scanning bonds ...
  1 = max bonds/atom
  scanning angles ...
  6 = max angles/atom
  scanning dihedrals ...
  11 = max dihedrals/atom
  reading bonds ...
  2184 bonds
  reading angles ...
  4032 angles
  reading dihedrals ...
  4536 dihedrals
  4 = max # of 1-2 neighbors
  6 = max # of 1-3 neighbors
  9 = max # of 1-4 neighbors
  13 = max # of special neighbors
  special bonds CPU = 0.000977456 secs
  read_data CPU = 1.19205 secs

group           mobile union all
2352 atoms in group mobile

#minimize 1.0e-8 1.0e-10 400000 400000
#write_data buate_after_min.data

fix DEF all deform 1 x final 0.0 28.2569 y final 0.0 28.2569 z final 0.0 28.2569 units box
run 1
Ewald initialization ...
  using 12-bit tables for long-range coulomb (src/kspace.cpp:332)
  G vector (1/distance) = 0.18912
  estimated absolute RMS force accuracy = 0.00400529
  estimated relative force accuracy = 1.20618e-05
  KSpace vectors: actual max1d max3d = 128 4 364
                  kxmax kymax kzmax  = 4 4 4
Neighbor list info ...
  update every 1 steps, delay 0 steps, check yes
  max neighbors/atom: 2000, page size: 100000
  master list distance cutoff = 14
  ghost atom cutoff = 14
  binsize = 7, bins = 5 5 5
  1 neighbor lists, perpetual/occasional/extra = 1 0 0
  (1) pair lj/cut/coul/long, perpetual
      attributes: half, newton on
      pair build: half/bin/newton
      stencil: half/bin/3d/newton
      bin: standard
Per MPI rank memory allocation (min/avg/max) = 19.28 | 19.29 | 19.29 Mbytes
Step Temp E_pair E_mol TotEng Press Volume 
       0    173.80545   -903.65774    1207.0279    1521.3786    493.16408    22580.381 
       1    173.80545   -903.68299    1207.0279    1521.3533    493.41696     22561.79 
WARNING: Bond/angle/dihedral extent > half of periodic box length (src/domain.cpp:906)
Loop time of 0.00211976 on 24 procs for 1 steps with 2352 atoms

Performance: 40.759 ns/day, 0.589 hours/ns, 471.752 timesteps/s
95.5% CPU use with 24 MPI tasks x 1 OpenMP threads

MPI task timing breakdown:
Section |  min time  |  avg time  |  max time  |%varavg| %total
---------------------------------------------------------------
Pair    | 0.0010595  | 0.0012098  | 0.0013276  |   0.2 | 57.07
Bond    | 3.6437e-05 | 4.8422e-05 | 6.0462e-05 |   0.0 |  2.28
Kspace  | 0.00011397 | 0.00023873 | 0.00039536 |   0.0 | 11.26
Neigh   | 0          | 0          | 0          |   0.0 |  0.00
Comm    | 0.00047687 | 0.00048941 | 0.00050338 |   0.0 | 23.09
Output  | 4.274e-05  | 5.8153e-05 | 7.0862e-05 |   0.0 |  2.74
Modify  | 5.249e-06  | 6.0941e-06 | 1.3065e-05 |   0.0 |  0.29
Other   |            | 6.914e-05  |            |       |  3.26

Nlocal:    98 ave 107 max 88 min
Histogram: 3 0 1 4 2 4 4 2 2 2
Nghost:    5668.79 ave 5742 max 5575 min
Histogram: 2 2 1 0 3 3 6 1 4 2
Neighs:    58610.3 ave 62538 max 52378 min
Histogram: 2 0 1 3 2 2 2 5 4 3

Total # of neighbors = 1406648
Ave neighs/atom = 598.065
Ave special neighs/atom = 9.14286
Neighbor list builds = 0
Dangerous builds = 0
unfix DEF

thermo_style    custom step time enthalpy etotal ke pe temp press vol density
#thermo_modify   line multi
thermo          1000
thermo_modify   flush yes
timestep 1.0


## Equil NPT ##
#fix      NPT  all nvt temp 272 272 100 iso 1 1 1000
#restart 1000000 liqbut1.restart

#fix      NPT  all npt temp 160 160 50 iso 1 1 500
#dump myDump all atom 2000 butane_npt.lammpstrj

#run 5000000
#write_data ethanol_after_npt.data



fix 1 all nvt temp 175 175 100 # iso 1.0 1.0 1000.0
#dump            DUMPxyz all xyz 1 but1_clms_20ps.xyz
#dump            DUMP all custom 1000 mol.lammpstrj id type x y z fx fy fz mol

run 1000000
Ewald initialization ...
  using 12-bit tables for long-range coulomb (src/kspace.cpp:332)
  G vector (1/distance) = 0.189127
  estimated absolute RMS force accuracy = 0.00400244
  estimated relative force accuracy = 1.20532e-05
  KSpace vectors: actual max1d max3d = 128 4 364
                  kxmax kymax kzmax  = 4 4 4
Per MPI rank memory allocation (min/avg/max) = 19.28 | 19.29 | 19.29 Mbytes
Step Time Enthalpy TotEng KinEng PotEng Temp Press Volume Density 
       1            1    1869.8887    1520.9303    1218.0085    302.92179    173.80545    1060.5332     22561.79   0.71867176 
    1000         1000     1666.339    1587.4901    1236.7254    350.76467    176.47629    239.63289     22561.79   0.71867176 
    2000         2000    1268.4077    1500.2948    1191.1772     309.1176    169.97672   -704.73708     22561.79   0.71867176 
    3000         3000     1628.922     1570.189    1254.6448    315.54424    179.03331    178.49765     22561.79   0.71867176 
    4000         4000    1341.9836    1548.4808    1221.1683    327.31248    174.25635   -627.57372     22561.79   0.71867176 
    5000         5000    1523.1709    1508.0928    1207.1715     300.9213    172.25905     45.82454     22561.79   0.71867176 
    6000         6000    1443.8414    1527.7558    1232.6279    295.12793    175.89158    -255.0275     22561.79   0.71867176 
    7000         7000    1868.9226    1557.6143     1218.361    339.25334    173.85574     946.1091     22561.79   0.71867176 
    8000         8000    1671.5121    1521.2456     1226.582     294.6636    175.02886    456.68071     22561.79   0.71867176 
    9000         9000     1340.934    1577.5397    1253.6128    323.92695    178.88605   -719.07769     22561.79   0.71867176 
   10000        10000    1450.3419    1550.5461    1197.0608    353.48527    170.81628   -304.53421     22561.79   0.71867176 
   11000        11000    1773.2505    1604.9902    1264.5319    340.45837    180.44417    511.36627     22561.79   0.71867176 
   12000        12000    1273.2148    1529.1803    1239.0901     290.0902    176.81372   -777.91461     22561.79   0.71867176 
   13000        13000    1619.3007    1540.4796    1195.7212    344.75838    170.62514    239.54816     22561.79   0.71867176 
   14000        14000    1697.7763    1531.7167     1259.301    272.41569    179.69774     504.6781     22561.79   0.71867176 
   15000        15000    2095.3924    1500.9221    1208.5425    292.37958    172.45469     1806.678     22561.79   0.71867176 
   16000        16000    1628.6321    1559.2047    1248.5584    310.64629    178.16481    210.99941     22561.79   0.71867176 
   17000        17000     1540.657    1577.9815    1240.1393    337.84215    176.96344   -113.43438     22561.79   0.71867176 
   18000        18000    1879.5587    1567.4986    1251.5975    315.90114    178.59848    948.39398     22561.79   0.71867176 
   19000        19000    1558.6987    1511.4253    1182.6257    328.79961    168.75645    143.67046     22561.79   0.71867176 
   20000        20000    1668.0609    1592.9003    1255.0773    337.82305    179.09503    228.42336     22561.79   0.71867176 
   21000        21000    1700.1651    1528.0415    1207.1938     320.8477    172.26223    523.10745     22561.79   0.71867176 
   22000        22000    1836.2689    1523.9613    1209.2981    314.66326     172.5625      949.146     22561.79   0.71867176 
   23000        23000    1470.2327    1547.4814    1206.8652     340.6162    172.21534    -234.7694     22561.79   0.71867176 
   24000        24000    1283.5142    1532.4729    1240.3481    292.12479    176.99323   -756.62003     22561.79   0.71867176 
   25000        25000    1558.5114    1556.2232    1235.2684    320.95487    176.26837    6.9541369     22561.79   0.71867176 
   26000        26000    1668.7168    1519.0729    1220.0877    298.98518    174.10214    454.78866     22561.79   0.71867176 
   27000        27000    1864.0254    1564.7608    1245.4944    319.26645    177.72759     909.5066     22561.79   0.71867176 
   28000        28000    1303.9089    1562.5372    1232.1617     330.3755    175.82506   -786.00735     22561.79   0.71867176 
   29000        29000    1238.8281    1524.9367    1233.0723    291.86445      175.955   -869.52397     22561.79   0.71867176 
   30000        30000    2046.8682    1568.0754    1215.7072    352.36815    173.47706    1455.1179     22561.79   0.71867176 
   31000        31000    1696.5148    1506.1585    1214.7708    291.38771    173.34344    578.51926     22561.79   0.71867176 
   32000        32000    1633.8899     1532.949    1244.6163    288.33264    177.60229     306.7736     22561.79   0.71867176 
   33000        33000    1926.3281    1584.1725    1245.1654    339.00707    177.68064    1039.8586     22561.79   0.71867176 
   34000        34000    1563.4494    1520.6637    1220.0794    300.58425    174.10096    130.03175     22561.79   0.71867176 
   35000        35000    1927.0604    1588.8054    1259.4333    329.37214    179.71662     1028.004     22561.79   0.71867176 
   36000        36000    1985.1806    1571.2417    1269.7983    301.44349    181.19566    1258.0176     22561.79   0.71867176 
   37000        37000    1125.4206    1503.2037    1197.1715    306.03217    170.83208   -1148.1353     22561.79   0.71867176 
   38000        38000    1288.9292    1562.3611    1225.4437    336.91743    174.86642   -830.99749     22561.79   0.71867176 
   39000        39000    1186.3184    1548.6011    1253.4324    295.16876    178.86031   -1101.0274     22561.79   0.71867176 
   40000        40000    1581.7964    1525.0094    1195.6302    329.37924    170.61214    172.58352     22561.79   0.71867176 
   41000        41000    1775.4898    1522.3426    1215.7829    306.55969    173.48787    769.34955     22561.79   0.71867176 
   42000        42000    1379.7486      1477.89    1177.8484    300.04162    168.07475    -298.2655     22561.79   0.71867176 
   43000        43000    1334.5417    1567.6279    1240.6901    326.93785    177.04203   -708.38147     22561.79   0.71867176 
   44000        44000    1201.4228    1586.6042    1228.9168     357.6874    175.36203     -1170.62     22561.79   0.71867176 
   45000        45000      1353.87    1549.7211    1228.1391      321.582    175.25105    -595.2187     22561.79   0.71867176 
   46000        46000    1558.5732    1539.3908    1215.3875    324.00328    173.43144     58.29804     22561.79   0.71867176 
   47000        47000    1867.5453     1550.528    1216.0371    334.49093    173.52414    963.45951     22561.79   0.71867176 
   48000        48000    1098.1927    1550.2904    1209.9564    340.33396    172.65644   -1373.9875     22561.79   0.71867176 
   49000        49000    1629.7811    1512.0573    1175.1648    336.89246    167.69181    357.77917     22561.79   0.71867176 
   50000        50000    2042.1272    1568.7566    1233.2933    335.46333    175.98653     1438.639     22561.79   0.71867176 
   51000        51000    1669.9149     1498.518    1221.1609    277.35714    174.25528    520.89887     22561.79   0.71867176 
   52000        52000     1559.455    1559.3265    1238.7281    320.59846    176.76206   0.39034923     22561.79   0.71867176 
   53000        53000    1728.1564    1502.7122    1183.9024    318.80984    168.93863    685.15599     22561.79   0.71867176 
   54000        54000    1901.1315    1545.8851    1244.1743    301.71086    177.53921     1079.643     22561.79   0.71867176 
   55000        55000    1510.1622    1589.0725    1268.1244    320.94809     180.9568   -239.81923     22561.79   0.71867176 
   56000        56000    1724.8185    1575.8473    1263.6965     312.1508    180.32496    452.74414     22561.79   0.71867176 
   57000        57000    2302.5697    1514.4992    1203.1632    311.33605    171.68707    2395.0556     22561.79   0.71867176 
   58000        58000    1786.2886     1551.688    1234.5408    317.14721    176.16454    712.98401     22561.79   0.71867176 
   59000        59000    1623.8147    1492.7664    1179.0046    313.76186    168.23973     398.2738     22561.79   0.71867176 
   60000        60000    1533.1137    1567.0754    1237.1407    329.93473    176.53555   -103.21456     22561.79   0.71867176 
   61000        61000    1499.0864    1555.4814    1217.0264    338.45497    173.66531   -171.39225     22561.79   0.71867176 
   62000        62000    1357.5846    1490.3509     1195.419    294.93184    170.58201   -403.49524     22561.79   0.71867176 
   63000        63000    1876.6591    1519.7647    1211.3311    308.43352    172.85261    1084.6518     22561.79   0.71867176 
   64000        64000    1431.9896    1551.9258    1193.7912    358.13459    170.34973    -364.5026     22561.79   0.71867176 
   65000        65000     2062.449    1570.2103    1239.4752    330.73517    176.86866    1495.9819     22561.79   0.71867176 
   66000        66000    1477.4841    1589.8711    1245.5151    344.35606    177.73054    -341.5597     22561.79   0.71867176 
   67000        67000    1090.0791    1599.1463    1253.0419    346.10437    178.80459   -1547.1259     22561.79   0.71867176 
   68000        68000    901.98091    1542.2092    1203.3756    338.83357    171.71738   -1945.7426     22561.79   0.71867176 
   69000        69000    1570.4204      1531.08     1216.471    314.60895    173.58605    119.56099     22561.79   0.71867176 
   70000        70000    1538.7789    1548.4625    1237.3655      311.097    176.56763   -29.429993     22561.79   0.71867176 
   71000        71000     1516.786    1511.5524    1198.6004    312.95198    171.03599    15.905457     22561.79   0.71867176 
   72000        72000    1213.1117      1569.71    1234.4508    335.25927     176.1517   -1083.7519     22561.79   0.71867176 
   73000        73000    1058.9819    1551.1787    1208.3497    342.82894    172.42718   -1495.8543     22561.79   0.71867176 
   74000        74000    1429.6554    1545.4828    1230.1251    315.35769    175.53445   -352.01552     22561.79   0.71867176 
   75000        75000     1660.418    1524.0463    1190.0445    334.00179    169.81509    414.45245     22561.79   0.71867176 
   76000        76000    1550.3513    1547.3748     1222.154     325.2208    174.39699      9.04618     22561.79   0.71867176 
   77000        77000     1730.588    1556.6203    1223.6258    332.99452    174.60701    528.71223     22561.79   0.71867176 
   78000        78000    1780.9506    1571.7543     1227.818    343.93628    175.20523     635.7767     22561.79   0.71867176 
   79000        79000    1658.3313    1499.9481    1199.6392    300.30886    171.18422    481.34875     22561.79   0.71867176 
   80000        80000    1293.1176    1542.5977    1219.2802    323.31746    173.98692   -758.20476     22561.79   0.71867176 
   81000        81000    1614.4198    1544.5494    1192.1462    352.40325    170.11499    212.34573     22561.79   0.71867176 
   82000        82000    1646.2196    1589.4865    1279.4765    310.01001    182.57672     172.4196     22561.79   0.71867176 
   83000        83000    1175.4954    1563.0955    1222.7332    340.36229    174.47965   -1177.9708     22561.79   0.71867176 
   84000        84000    1945.7649    1565.1922    1232.5291    332.66309    175.87749    1156.6134     22561.79   0.71867176 
   85000        85000    1968.4478     1538.135    1214.8882    323.24683    173.36019    1307.7805     22561.79   0.71867176 
   86000        86000      1635.59    1501.9827    1198.6493    303.33338    171.04296    406.05108     22561.79   0.71867176 
   87000        87000    1316.3129    1536.3506    1203.2318    333.11878    171.69687   -668.72506     22561.79   0.71867176 
   88000        88000    1372.5638    1557.5195    1210.9024    346.61706    172.79144   -562.10604     22561.79   0.71867176 
   89000        89000      1683.89    1576.2083    1245.2078    331.00042     177.6867    327.25975     22561.79   0.71867176 
   90000        90000    1707.8951    1541.3534    1233.4672    307.88621    176.01136    506.14317     22561.79   0.71867176 
   91000        91000    1861.7532    1549.2841    1227.3582    321.92593    175.13962    949.63685     22561.79   0.71867176 
   92000        92000    1410.5039    1560.0831    1258.2925    301.79054    179.55384   -454.59193     22561.79   0.71867176 
   93000        93000    1037.6797    1527.2358    1257.8792     269.3566    179.49486   -1487.8289     22561.79   0.71867176 
   94000        94000    1730.6037    1519.0968    1242.8606    276.23621    177.35176    642.79877     22561.79   0.71867176 
   95000        95000    2268.2137    1553.3263    1226.8779    326.44836    175.07108    2172.6424     22561.79   0.71867176 
   96000        96000    1856.2548    1537.0901    1238.9307     298.1594    176.79097      969.986     22561.79   0.71867176 
   97000        97000    1822.7688    1523.4873    1241.6932    281.79418    177.18517     909.5579     22561.79   0.71867176 
   98000        98000    1374.4035    1598.7809    1251.8792    346.90174    178.63867   -681.91423     22561.79   0.71867176 
   99000        99000    1642.9127    1518.8962    1218.8599    300.03634    173.92693     376.9035     22561.79   0.71867176 
  100000       100000    2189.0377    1570.8078     1249.885    320.92272    178.35412    1878.8869     22561.79   0.71867176 
  101000       101000    1724.8077    1495.0449    1200.0769    294.96795    171.24668    698.28103     22561.79   0.71867176 
  102000       102000    1942.1154    1518.4538    1179.2859    339.16791    168.27987    1287.5666     22561.79   0.71867176 
  103000       103000     1558.471    1584.8438    1249.2561    335.58769    178.26437   -80.150596     22561.79   0.71867176 
  104000       104000    1882.8419    1547.4116    1234.3532    313.05844    176.13777    1019.4192     22561.79   0.71867176 
  105000       105000    1680.0374     1518.516    1199.6781    318.83791    171.18977    490.88578     22561.79   0.71867176 
  106000       106000    2319.6331    1542.2947     1226.012    316.28261    174.94753    2362.4396     22561.79   0.71867176 
  107000       107000    1818.3227    1580.3376     1270.273     310.0646     181.2634    723.27001     22561.79   0.71867176 
  108000       108000    2182.9972    1535.2768    1217.6979    317.57888    173.76113    1968.5123     22561.79   0.71867176 
  109000       109000    1840.5797    1599.6152    1244.1876    355.42758    177.54111    732.32478     22561.79   0.71867176 
  110000       110000     1904.508    1558.7053    1221.0626     337.6427    174.24126    1050.9423     22561.79   0.71867176 
  111000       111000    1630.3688    1547.8109    1228.0446    319.76627    175.23757    250.90485     22561.79   0.71867176 
  112000       112000    1854.3731    1574.5683      1227.38    347.18826    175.14273    850.36586     22561.79   0.71867176 
  113000       113000    1569.3132    1611.3058     1259.032    352.27379    179.65936   -127.62141     22561.79   0.71867176 
  114000       114000     2266.754     1531.463    1233.4505    298.01246    176.00897    2234.6516     22561.79   0.71867176 
  115000       115000    1607.5349    1582.9063     1221.686    361.22029    174.33021    74.849908     22561.79   0.71867176 
  116000       116000    1540.7727    1547.4769    1237.9444    309.53247    176.65023    -20.37473     22561.79   0.71867176 
  117000       117000    1638.4423    1563.5942    1231.7588    331.83533    175.76757     227.4738     22561.79   0.71867176 
  118000       118000    1555.0005    1535.4973    1246.4401     289.0572    177.86254    59.272821     22561.79   0.71867176 
  119000       119000    1782.2132    1579.7801    1241.0142    338.76592    177.08828    615.22219     22561.79   0.71867176 
  120000       120000    2038.9105     1543.441    1234.4927    308.94827    176.15769    1505.8007     22561.79   0.71867176 
  121000       121000    1651.4661     1512.958    1200.8497    312.10831    171.35694    420.94558     22561.79   0.71867176 
  122000       122000     1953.622    1501.6908    1198.8121    302.87875    171.06619    1373.4815     22561.79   0.71867176 
  123000       123000    1136.8885    1531.3925    1184.1115    347.28095    168.96847   -1198.9524     22561.79   0.71867176 
  124000       124000    1020.1565    1543.8076    1217.0906    326.71704    173.67446   -1591.4486     22561.79   0.71867176 
  125000       125000    1545.6131    1538.7348    1224.5784    314.15642    174.74295    20.904083     22561.79   0.71867176 
  126000       126000    1372.0141    1541.2219    1232.9163     308.3056    175.93274   -514.24595     22561.79   0.71867176 
  127000       127000    1364.6565    1565.8719     1244.886    320.98596    177.64077   -611.52173     22561.79   0.71867176 
  128000       128000    1286.7356    1517.8484    1228.9978    288.85055    175.37358   -702.38385     22561.79   0.71867176 
  129000       129000    1711.4398    1563.3415    1235.9422    327.39928    176.36452    450.09133     22561.79   0.71867176 
  130000       130000    1199.1342    1543.8069    1243.6314     300.1755    177.46174   -1047.5083     22561.79   0.71867176 
  131000       131000    1157.0742    1571.7037    1247.5831    324.12057    178.02564   -1260.1167     22561.79   0.71867176 
  132000       132000    1376.8418    1579.5108    1250.8456    328.66517    178.49119   -615.93914     22561.79   0.71867176 
  133000       133000    1783.6433    1519.1571    1205.1551    314.00203    171.97131    803.81039     22561.79   0.71867176 
  134000       134000    1663.4279    1601.2337    1236.8339    364.39988    176.49176    189.01655     22561.79   0.71867176 
  135000       135000    1476.9494    1540.6646    1212.9238    327.74084    173.07988   -193.63956     22561.79   0.71867176 
  136000       136000    2053.4472    1606.3132    1263.5324    342.78081    180.30155    1358.9023     22561.79   0.71867176 
  137000       137000    1776.7921    1567.8278    1239.2364    328.59143    176.83459    635.07144     22561.79   0.71867176 
  138000       138000    1612.5868    1512.5092    1198.8272      313.682    171.06835    304.14966     22561.79   0.71867176 
  139000       139000     1527.737    1560.9824    1233.6978     327.2846    176.04426    -101.0374     22561.79   0.71867176 
  140000       140000    1369.7636    1528.8792    1246.9403    281.93891    177.93391   -483.57434     22561.79   0.71867176 
  141000       141000    1521.4575    1574.3356    1240.5381    333.79745    177.02034   -160.70369     22561.79   0.71867176 
  142000       142000    1615.1625    1542.5027    1224.7963    317.70643    174.77404    220.82307     22561.79   0.71867176 
  143000       143000    1979.6223    1540.4194    1220.8598    319.55951    174.21233    1334.7987     22561.79   0.71867176 
  144000       144000    1404.9719    1545.2014    1227.5081    317.69331    175.16101   -426.17706     22561.79   0.71867176 
  145000       145000    2128.0358     1569.054    1248.0573    320.99679     178.0933    1698.8232     22561.79   0.71867176 
  146000       146000     1589.052    1558.6307    1228.5153     330.1154    175.30473    92.454745     22561.79   0.71867176 
  147000       147000     1525.583    1523.4882    1200.4897    322.99847    171.30559    6.3664631     22561.79   0.71867176 
  148000       148000    1585.7928    1522.1369     1195.587    326.54983    170.60598    193.45942     22561.79   0.71867176 
  149000       149000    1984.1527    1565.0499    1270.8101    294.23979    181.34005    1273.7116     22561.79   0.71867176 
  150000       150000     1324.268    1523.4765    1231.6784    291.79813    175.75609   -605.42234     22561.79   0.71867176 
  151000       151000    969.00619      1536.61    1205.9527    330.65725    172.08513   -1725.0268     22561.79   0.71867176 
  152000       152000    1449.8312     1536.546    1197.0583    339.48764    170.81593   -263.53836     22561.79   0.71867176 
  153000       153000    1559.9955    1573.5301    1235.7175    337.81254    176.33246   -41.133466     22561.79   0.71867176 
  154000       154000    1644.3148    1545.3166    1220.4612    324.85539    174.15544    300.86926     22561.79   0.71867176 
  155000       155000     1921.138    1475.3211    1165.8931    309.42804    166.36877    1354.8995     22561.79   0.71867176 
  156000       156000    1735.3824    1556.8066    1215.4456    341.36102    173.43973    542.71655     22561.79   0.71867176 
  157000       157000    1694.4231    1545.5107    1239.4691    306.04159     176.8678    452.56538     22561.79   0.71867176 
  158000       158000     1227.935    1555.1546     1264.656    290.49861    180.46188   -994.46571     22561.79   0.71867176 
  159000       159000    918.47793     1601.673    1263.6198    338.05318    180.31402   -2076.3249     22561.79   0.71867176 
  160000       160000    1310.0822    1535.1741    1241.1753    293.99871    177.11127   -684.08549     22561.79   0.71867176 
  161000       161000    1646.4986    1507.0737    1212.2387    294.83501    172.98212    423.73141     22561.79   0.71867176 
  162000       162000    1295.8923    1553.3243    1237.7891    315.53519    176.62808   -782.37173     22561.79   0.71867176 
  163000       163000    1291.0755    1518.0307    1213.3114    304.71929    173.13519   -689.74857     22561.79   0.71867176 
  164000       164000    2296.0195    1544.6881     1214.065    330.62304    173.24273    2283.4007     22561.79   0.71867176 
  165000       165000    1996.8923    1603.9177    1293.0191     310.8986     184.5092    1194.3045     22561.79   0.71867176 
  166000       166000    1517.2817    1509.8542    1206.1392    303.71494    172.11175    22.573185     22561.79   0.71867176 
  167000       167000     1674.749    1532.1462     1228.938    303.20816    175.36505    433.38997     22561.79   0.71867176 
  168000       168000    1290.4036    1528.9491    1220.0898     308.8593    174.10244   -724.97289     22561.79   0.71867176 
  169000       169000    1880.3627    1551.0428    1224.7211    326.32177    174.76331    1000.8489     22561.79   0.71867176 
  170000       170000    1495.6276    1528.0574    1228.7442    299.31316    175.33739   -98.558532     22561.79   0.71867176 
  171000       171000    1911.3254    1488.9368    1199.9638    288.97298    171.23054    1283.6977     22561.79   0.71867176 
  172000       172000    1725.3993    1566.8288    1266.5017    300.32713    180.72525    481.91771     22561.79   0.71867176 
  173000       173000    1599.5406    1528.6596    1231.0655    297.59409    175.66864    215.41721     22561.79   0.71867176 
  174000       174000    1403.3031    1558.1267    1233.2431    324.88357    175.97938   -470.53051     22561.79   0.71867176 
  175000       175000    1317.8144    1604.4306    1302.1555    302.27506    185.81293   -871.06629     22561.79   0.71867176 
  176000       176000    1781.1401    1534.2787    1229.7705    304.50814    175.48385    750.24613     22561.79   0.71867176 
  177000       177000    1427.6369     1503.596    1216.6909    286.90507    173.61744   -230.85018     22561.79   0.71867176 
  178000       178000      1653.34    1514.8218    1215.5747    299.24707    173.45816    420.97619     22561.79   0.71867176 
  179000       179000    1991.2064    1567.7039    1229.7463    337.95763    175.48039    1287.0829     22561.79   0.71867176 
  180000       180000    1362.5502    1497.7568    1215.3547    282.40206    173.42676   -410.91152     22561.79   0.71867176 
  181000       181000    1106.1476    1556.3426    1219.6805    336.66217    174.04403   -1368.2053     22561.79   0.71867176 
  182000       182000    1672.1353     1549.576    1215.0504    334.52565    173.38334    372.47461     22561.79   0.71867176 
  183000       183000    1338.7512    1523.9345     1204.792    319.14249     171.9195   -562.79791     22561.79   0.71867176 
  184000       184000    1156.3689    1520.8006    1223.2811    297.51944    174.55784   -1107.5587     22561.79   0.71867176 
  185000       185000    1689.3746    1569.1545    1238.5155    330.63893    176.73173    365.36563     22561.79   0.71867176 
  186000       186000    1665.5956    1564.7874    1238.3632     326.4242    176.70999    306.37036     22561.79   0.71867176 
  187000       187000    1680.4768    1521.9029    1224.5731    297.32983    174.74219    481.92797     22561.79   0.71867176 
  188000       188000    1765.6644    1548.8127    1221.6814    327.13134    174.32955    659.04242     22561.79   0.71867176 
  189000       189000    1649.9902    1547.9163    1213.5889    334.32744    173.17479    310.21678     22561.79   0.71867176 
  190000       190000    1690.1878     1553.186    1219.6597    333.52622    174.04108    416.36751     22561.79   0.71867176 
  191000       191000    1631.2491    1477.3859    1180.3845    297.00142    168.43664    467.61179     22561.79   0.71867176 
  192000       192000    1963.7379    1537.4409    1235.0872    302.35372    176.24252    1295.5758     22561.79   0.71867176 
  193000       193000    2288.4921    1576.8192    1222.4699    354.34928    174.44208    2162.8727     22561.79   0.71867176 
  194000       194000    1138.6904    1527.3631    1241.3539    286.00919    177.13676   -1181.2304     22561.79   0.71867176 
  195000       195000    1686.7205    1586.4149    1251.5377    334.87712    178.58995    304.84292     22561.79   0.71867176 
  196000       196000    2202.3478    1527.8593    1239.3598    288.49949     176.8522    2049.8645     22561.79   0.71867176 
  197000       197000    1440.6338    1543.0289    1229.9818    313.04712      175.514   -311.19288     22561.79   0.71867176 
  198000       198000    1504.8375    1537.6933    1218.9383      318.755    173.93812   -99.853253     22561.79   0.71867176 
  199000       199000    2046.0268    1564.6716    1225.5507    339.12081     174.8817    1462.9056     22561.79   0.71867176 
  200000       200000    1389.8444    1542.9327    1252.5715    290.36128    178.73746    -465.2569     22561.79   0.71867176 
  201000       201000    2075.8862     1580.681    1231.0662    349.61481    175.66873    1504.9974     22561.79   0.71867176 
  202000       202000    1849.5387    1555.9614    1250.4858    305.47562    178.43984    892.22227     22561.79   0.71867176 
  203000       203000    1479.1775     1519.846    1199.7638    320.08223    171.20199   -123.59723     22561.79   0.71867176 
  204000       204000    1348.9578    1512.4166    1203.6741    308.74243    171.75999   -496.77394     22561.79   0.71867176 
  205000       205000    1985.4955    1543.4867    1240.7036    302.78301    177.04397    1343.3264     22561.79   0.71867176 
  206000       206000    1716.7856    1497.6143    1187.4037    310.21062    169.43825    666.09195     22561.79   0.71867176 
  207000       207000    1595.9019    1533.2789    1231.5238    301.75511    175.73404    190.31987     22561.79   0.71867176 
  208000       208000    1848.4637    1574.8804     1227.569    347.31132     175.1697    831.45792     22561.79   0.71867176 
  209000       209000    1865.6975    1583.1287     1262.752     320.3767    180.19019     858.7659     22561.79   0.71867176 
  210000       210000     1728.439    1516.9754    1225.9707    291.00474    174.94162    642.66731     22561.79   0.71867176 
  211000       211000    1395.7455    1503.1184     1200.455    302.66339    171.30063   -326.32119     22561.79   0.71867176 
  212000       212000    1424.0341    1530.0563      1235.91    294.14633    176.35993   -322.21624     22561.79   0.71867176 
  213000       213000    1557.3722    1580.9462    1243.4041    337.54218     177.4293   -71.644808     22561.79   0.71867176 
  214000       214000    2090.7137    1484.8271    1197.1137     287.7134    170.82384    1841.3735     22561.79   0.71867176 
  215000       215000    1581.3719    1559.9576    1253.2459    306.71179    178.83369    65.081043     22561.79   0.71867176 
  216000       216000    1079.3908    1497.0506    1176.1734    320.87725    167.83573   -1269.3263     22561.79   0.71867176 
  217000       217000    1228.2384    1545.4145    1215.2268    330.18775     173.4085   -963.94235     22561.79   0.71867176 
  218000       218000    1450.5442    1529.5401    1205.4872    324.05294     172.0187   -240.07952     22561.79   0.71867176 
  219000       219000    1228.9741    1558.2272    1232.8526    325.37463    175.92365   -1000.6461     22561.79   0.71867176 
  220000       220000     1485.669    1579.9391    1258.2668    321.67224    179.55017   -286.49971     22561.79   0.71867176 
  221000       221000    1506.8231    1519.4267    1206.5602    312.86652    172.17182   -38.304224     22561.79   0.71867176 
  222000       222000    1925.9202    1566.4071    1263.4377    302.96938    180.28804    1092.6102     22561.79   0.71867176 
  223000       223000    1197.0369    1598.6249    1250.6108    348.01407    178.45768   -1220.4816     22561.79   0.71867176 
  224000       224000    1743.2226    1540.5712    1199.0442      341.527    171.09932    615.88561     22561.79   0.71867176 
  225000       225000    1659.2441    1494.7826    1199.2039    295.57867    171.12211    499.82119     22561.79   0.71867176 
  226000       226000    1359.1358    1561.0242    1241.9923    319.03193    177.22785   -613.56708     22561.79   0.71867176 
  227000       227000    1435.9085    1549.8417     1197.532    352.30977    170.88352   -346.25884     22561.79   0.71867176 
  228000       228000    1544.0966    1556.0182    1216.7109    339.30729    173.62029   -36.231336     22561.79   0.71867176 
  229000       229000    1550.5598    1547.6722    1225.2952    322.37693    174.84524    8.7760339     22561.79   0.71867176 
  230000       230000    1413.7571     1605.646    1234.7687    370.87735    176.19706   -583.17702     22561.79   0.71867176 
  231000       231000    1494.3835    1549.7474    1219.9551    329.79231    174.08323   -168.25881     22561.79   0.71867176 
  232000       232000    1493.2798    1554.0861    1207.0431    347.04304    172.24072   -184.79867     22561.79   0.71867176 
  233000       233000    1357.6676    1536.5461    1215.8997    320.64637    173.50453   -543.63643     22561.79   0.71867176 
  234000       234000     1900.168    1555.9564    1254.1791    301.77728    178.96687    1046.1069     22561.79   0.71867176 
  235000       235000     1483.288    1501.1583     1184.812     316.3464    169.06842   -54.310462     22561.79   0.71867176 
  236000       236000     933.7598     1544.493    1251.3743    293.11874    178.56663   -1856.1031     22561.79   0.71867176 
  237000       237000    1269.5101    1561.3444    1219.4841    341.86027    174.01602   -886.92496     22561.79   0.71867176 
  238000       238000    1480.7056    1602.3742    1234.6058    367.76843    176.17383    -369.7678     22561.79   0.71867176 
  239000       239000    1575.2359    1536.0772     1210.415     325.6622    172.72188    119.00866     22561.79   0.71867176 
  240000       240000    1012.6167    1503.8076    1216.0869    287.72072    173.53124   -1492.7974     22561.79   0.71867176 
  241000       241000    1556.1913    1542.8771    1203.0712    339.80596    171.67395    40.463484     22561.79   0.71867176 
  242000       242000    2083.9625    1539.3987      1207.16    332.23872    172.25741    1655.0049     22561.79   0.71867176 
  243000       243000    1685.6955    1571.7537    1237.6262     334.1275    176.60483    346.28491     22561.79   0.71867176 
  244000       244000    1168.8774    1489.8048    1225.2737    264.53114    174.84216   -975.34305     22561.79   0.71867176 
  245000       245000    2359.0665    1565.5056    1220.3589    345.14666    174.14085    2411.7421     22561.79   0.71867176 
  246000       246000    1684.5879    1536.3816    1226.9611    309.42055    175.08295    450.41951     22561.79   0.71867176 
  247000       247000    1210.7114    1557.2591    1250.6824    306.57662     178.4679   -1053.2064     22561.79   0.71867176 
  248000       248000    2150.0912    1578.4955    1250.8145    327.68103    178.48674    1737.1587     22561.79   0.71867176 
  249000       249000     1915.211    1569.1014    1264.7374      304.364     180.4735    1051.8752     22561.79   0.71867176 
  250000       250000     1944.337     1579.131    1229.9154    349.21557    175.50452    1109.9119     22561.79   0.71867176 
  251000       251000    2081.1597    1581.1742    1243.0063     338.1679    177.37254    1519.5254     22561.79   0.71867176 
  252000       252000    1350.6812    1511.2091    1217.7954     293.4137    173.77504   -487.86642     22561.79   0.71867176 
  253000       253000    1628.6132    1557.6767    1252.0641     305.6126    178.66506    215.58573     22561.79   0.71867176 
  254000       254000    1167.1337    1537.8573    1203.9346    333.92276    171.79715   -1126.6808     22561.79   0.71867176 
  255000       255000    1684.6555     1576.239    1218.2896    357.94943    173.84556    329.49283     22561.79   0.71867176 
  256000       256000    915.87933    1515.1254    1190.1022    325.02322    169.82332   -1821.1921     22561.79   0.71867176 
  257000       257000    1071.8846    1527.5278    1236.6973    290.83055    176.47227   -1384.7632     22561.79   0.71867176 
  258000       258000    1486.6037    1588.3173    1263.2888    325.02854    180.26678   -309.12172     22561.79   0.71867176 
  259000       259000    1683.3579    1532.0078      1187.41    344.59778    169.43915    459.97415     22561.79   0.71867176 
  260000       260000    1347.3131    1590.1639    1271.2133    318.95059    181.39759   -738.05724     22561.79   0.71867176 
  261000       261000    1315.4792     1551.909     1250.883    301.02603    178.49652     -718.543     22561.79   0.71867176 
  262000       262000    1243.5183    1544.0105    1213.0838    330.92676    173.10271   -913.23757     22561.79   0.71867176 
  263000       263000    1844.1304    1513.9261    1179.0624    334.86367    168.24798     1003.537     22561.79   0.71867176 
  264000       264000    1683.8247    1514.9373    1217.5563      297.381    173.74092    513.27231     22561.79   0.71867176 
  265000       265000    1454.2891    1523.1635    1226.4875    296.67606    175.01537   -209.31894     22561.79   0.71867176 
  266000       266000    1549.1495    1510.1143    1217.8896    292.22469    173.78848    118.63353     22561.79   0.71867176 
  267000       267000    1336.4349    1534.7279    1205.3655    329.36243    172.00134   -602.64014     22561.79   0.71867176 
  268000       268000    1988.7232    1538.5056    1209.4465    329.05908    172.58369    1368.2739     22561.79   0.71867176 
  269000       269000    1425.6679    1507.8278    1213.7677    294.06012     173.2003   -249.69539     22561.79   0.71867176 
  270000       270000    1284.9533    1563.7591    1256.3593    307.39973    179.27798   -847.32966     22561.79   0.71867176 
  271000       271000    1613.7677     1535.412    1212.0977    323.31438    172.96199    238.13368     22561.79   0.71867176 
  272000       272000    1609.6344    1476.0525     1187.076    288.97647     169.3915    405.97392     22561.79   0.71867176 
  273000       273000    1905.9799    1550.9758    1229.7395    321.23634    175.47942    1078.9067     22561.79   0.71867176 
  274000       274000    1807.6826    1562.2348    1217.9862    344.24857    173.80227    745.95004     22561.79   0.71867176 
  275000       275000    1523.8033    1519.1585    1189.0391    330.11942    169.67162    14.116176     22561.79   0.71867176 
  276000       276000    1655.5755    1549.0231    1225.8699    323.15313    174.92725    323.82765     22561.79   0.71867176 
  277000       277000    1775.8897    1505.8296    1203.8574    301.97219    171.78613    820.75039     22561.79   0.71867176 
  278000       278000    1451.0056    1540.9103    1197.3308    343.57956    170.85481   -273.23285     22561.79   0.71867176 
  279000       279000    1419.1865    1560.1224    1253.7108    306.41156    178.90004   -428.32386     22561.79   0.71867176 
  280000       280000    1400.2229    1597.6502    1236.7069    360.94329    176.47364   -600.00899     22561.79   0.71867176 
  281000       281000      1305.08    1530.4806    1222.2248    308.25577     174.4071    -685.0239     22561.79   0.71867176 
  282000       282000    1436.7924    1504.3931    1216.9571    287.43598    173.65542   -205.44787     22561.79   0.71867176 
  283000       283000    1719.8663    1537.7549    1208.4418    329.31313    172.44031    553.46174     22561.79   0.71867176 
  284000       284000    1357.9393    1497.0697    1216.4345    280.63517    173.58084   -422.83645     22561.79   0.71867176 
  285000       285000    1800.9616    1554.8233    1229.2262    325.59716    175.40617    748.04853     22561.79   0.71867176 
  286000       286000     1220.805    1574.7711    1223.8649    350.90615    174.64114    -1075.752     22561.79   0.71867176 
  287000       287000    1340.9718    1503.3035    1217.8201    285.48341    173.77856   -493.34869     22561.79   0.71867176 
  288000       288000    1220.3689    1559.8131    1234.8459    324.96719    176.20809   -1031.6181     22561.79   0.71867176 
  289000       289000     1459.361    1572.3515    1210.7743    361.57716    172.77316   -343.39387     22561.79   0.71867176 
  290000       290000    1509.3779    1587.9439    1214.8513    373.09266    173.35492   -238.77304     22561.79   0.71867176 
  291000       291000    1674.3424    1513.8006    1206.1516    307.64902    172.11351    487.90878     22561.79   0.71867176 
  292000       292000    1036.4253    1575.8804    1253.1758    322.70467    178.82369   -1639.4792     22561.79   0.71867176 
  293000       293000    2087.3416    1585.8418    1242.7995    343.04231    177.34304    1524.1277     22561.79   0.71867176 
  294000       294000     1899.564    1528.5782    1204.9681     323.6101    171.94463    1127.4774     22561.79   0.71867176 
  295000       295000    1552.7679    1551.5666    1202.9348    348.63176    171.65449    3.6510607     22561.79   0.71867176 
  296000       296000    1657.3196    1504.8571    1207.9665    296.89059    172.37249     463.3548     22561.79   0.71867176 
  297000       297000    1082.8804    1557.3907    1231.2305    326.16025    175.69218   -1442.1028     22561.79   0.71867176 
  298000       298000    1567.2447    1578.4724      1249.13    329.34241    178.24638   -34.122783     22561.79   0.71867176 
  299000       299000    1682.2339    1510.7392    1206.8738    303.86542    172.21656    521.19636     22561.79   0.71867176 
  300000       300000     1742.483    1586.4847    1237.1158    349.36892    176.53199     474.1006     22561.79   0.71867176 
  301000       301000     1328.923    1560.3298    1219.2085    341.12124    173.97669   -703.27722     22561.79   0.71867176 
  302000       302000    1928.0311    1525.6614    1205.0615    320.59988    171.95796    1222.8574     22561.79   0.71867176 
  303000       303000    1761.4863    1516.2675    1215.0518    301.21574    173.38354    745.25385     22561.79   0.71867176 
  304000       304000    1698.7731    1561.7578    1242.0048    319.75302    177.22964    416.40857     22561.79   0.71867176 
  305000       305000    1366.9988    1543.4924    1213.4788    330.01363    173.15907   -536.38856     22561.79   0.71867176 
  306000       306000    1594.0765    1521.7052    1208.6774    313.02777    172.47394    219.94656     22561.79   0.71867176 
  307000       307000    1836.5265    1554.7101     1224.372     330.3381    174.71349    856.47933     22561.79   0.71867176 
  308000       308000    1884.8304    1550.1292    1216.1977    333.93147    173.54705    1017.2037     22561.79   0.71867176 
  309000       309000    1224.2625    1509.1914    1198.8908    310.30058    171.07742   -865.93851     22561.79   0.71867176 
  310000       310000     1261.554    1517.4104    1204.1595     313.2509    171.82924    -777.5829     22561.79   0.71867176 
  311000       311000    1463.1659     1492.546     1206.421    286.12506    172.15195   -89.290287     22561.79   0.71867176 
  312000       312000    1250.1425    1557.7358    1236.3364    321.39936    176.42078   -934.81882     22561.79   0.71867176 
  313000       313000    2011.3966    1594.2947    1240.9484    353.34628    177.07889    1267.6307     22561.79   0.71867176 
  314000       314000    1712.6259     1524.312    1211.5295    312.78247    172.88092    572.31223     22561.79   0.71867176 
  315000       315000     1793.353    1557.1401    1207.7858    349.35431     172.3467    717.88373     22561.79   0.71867176 
  316000       316000    2047.0303    1560.3685    1238.8579    321.51059    176.78058    1479.0331     22561.79   0.71867176 
  317000       317000    1915.3169    1526.1614    1213.3212    312.84017    173.13659    1182.6977     22561.79   0.71867176 
  318000       318000    1805.9249    1567.4206    1221.8869    345.53366    174.35888    724.84802     22561.79   0.71867176 
  319000       319000    1591.1244    1537.1229    1230.0638    307.05911    175.52569    164.11821     22561.79   0.71867176 
  320000       320000    1791.3792    1550.7404    1235.1902    315.55022    176.25722    731.33482     22561.79   0.71867176 
  321000       321000    1367.0544    1520.0856    1207.4163     312.6693    172.29398   -465.08326     22561.79   0.71867176 
  322000       322000    1944.3484    1563.2827    1247.9466    315.33616     178.0775    1158.1117     22561.79   0.71867176 
  323000       323000    1481.2512    1564.6224    1250.3211    314.30128    178.41634   -253.37656     22561.79   0.71867176 
  324000       324000     2180.144    1483.4635    1183.2026    300.26092    168.83877     2117.309     22561.79   0.71867176 
  325000       325000    1515.8602    1573.3263    1223.9663       349.36    174.65561   -174.64738     22561.79   0.71867176 
  326000       326000    1410.2481    1512.9763     1161.633    351.34333    165.76087   -312.20528     22561.79   0.71867176 
  327000       327000    1275.6427    1529.8901    1212.2028    317.68732    172.97699   -772.69309     22561.79   0.71867176 
  328000       328000    1846.0419    1561.4027    1237.9712    323.43153    176.65406    865.05788     22561.79   0.71867176 
  329000       329000    1129.7898    1528.4152    1221.2719    307.14332    174.27113   -1211.4781     22561.79   0.71867176 
  330000       330000    1416.4066    1531.4407    1219.1149    312.32587    173.96333   -349.60476     22561.79   0.71867176 
  331000       331000    1328.4736    1508.8493    1208.8719    299.97736     172.5017   -548.18678     22561.79   0.71867176 
  332000       332000    1893.9901    1535.3494    1234.3584    300.99094    176.13852     1089.959     22561.79   0.71867176 
  333000       333000    1642.4367    1560.6027    1256.9187    303.68399    179.35779    248.70501     22561.79   0.71867176 
  334000       334000    1857.6972    1540.2332    1238.0989    302.13428    176.67228    964.81733     22561.79   0.71867176 
  335000       335000    1790.0405    1602.3656    1265.6526    336.71305    180.60409    570.37016     22561.79   0.71867176 
  336000       336000    1491.0442    1531.6785    1212.3478    319.33074    172.99769    -123.4933     22561.79   0.71867176 
  337000       337000    1634.2111    1560.7432    1230.4023    330.34088    175.57401    223.27919     22561.79   0.71867176 
  338000       338000     1878.926    1564.6737    1224.6974    339.97629    174.75993    955.05638     22561.79   0.71867176 
  339000       339000    1247.7127    1522.2241    1232.7013     289.5228    175.90206   -834.27837     22561.79   0.71867176 
  340000       340000    1363.2975    1570.1204    1219.1384    350.98199    173.96669   -628.56376     22561.79   0.71867176 
  341000       341000    1264.8023    1500.5175    1203.4955    297.02195     171.7345   -716.37121     22561.79   0.71867176 
  342000       342000    1795.0275    1557.4752    1199.9539    357.52129    171.22912    721.95447     22561.79   0.71867176 
  343000       343000    1850.1554    1600.5464    1261.7524      338.794    180.04755    758.59638     22561.79   0.71867176 
  344000       344000     1391.921    1567.8336    1235.2693    332.56431     176.2685   -534.62284     22561.79   0.71867176 
  345000       345000    1253.6949    1497.0615    1202.8525    294.20903    171.64274   -739.62497     22561.79   0.71867176 
  346000       346000    1427.3945    1529.8758    1222.5323    307.34355    174.45097   -311.45501     22561.79   0.71867176 
  347000       347000    1508.8865    1482.2786    1227.2281    255.05045    175.12105    80.865306     22561.79   0.71867176 
  348000       348000    1367.1235    1541.3933    1237.8176    303.57572    176.63214   -529.63017     22561.79   0.71867176 
  349000       349000    1451.0984    1555.3129    1222.9148    332.39805    174.50556   -316.72224     22561.79   0.71867176 
  350000       350000    896.22143    1520.0152     1210.666    309.34919     172.7577   -1895.7959     22561.79   0.71867176 
  351000       351000    1413.8939    1569.3173    1246.0717    323.24558    177.80996   -472.35308     22561.79   0.71867176 
  352000       352000    1562.9137    1576.6495    1233.0232    343.62627      175.948    -41.74499     22561.79   0.71867176 
  353000       353000    1604.8885    1540.9154     1231.879    309.03638    175.78472    194.42314     22561.79   0.71867176 
  354000       354000    1493.4667     1559.589    1261.5385    298.05051    180.01702   -200.95478     22561.79   0.71867176 
  355000       355000    1606.8605    1545.6477    1204.8824    340.76533     171.9324    186.03416     22561.79   0.71867176 
  356000       356000     1877.438     1518.851    1224.0782    294.77287    174.67157    1089.7956     22561.79   0.71867176 
  357000       357000    1980.1325    1559.4521    1245.2101    314.24205    177.68702     1278.506     22561.79   0.71867176 
  358000       358000    1402.4007    1539.2495    1208.7801    330.46935    172.48859   -415.90238     22561.79   0.71867176 
  359000       359000    1528.0824    1551.1896    1240.4809    310.70861    177.01219   -70.225971     22561.79   0.71867176 
  360000       360000    1274.7383    1524.9289    1229.7275    295.20141    175.47771   -760.36398     22561.79   0.71867176 
  361000       361000    1307.1647    1554.0787    1233.3922    320.68649    176.00064   -750.40589     22561.79   0.71867176 
  362000       362000    1745.6621    1602.9218     1246.104    356.81784    177.81457    433.80758     22561.79   0.71867176 
  363000       363000     1319.616    1570.1094    1208.6086    361.50081    172.46411   -761.28415     22561.79   0.71867176 
  364000       364000    1507.3568    1550.0367    1246.0671     303.9696    177.80932   -129.71024     22561.79   0.71867176 
  365000       365000    1747.9734    1574.5881    1226.3279    348.26014     174.9926    526.94214     22561.79   0.71867176 
  366000       366000     1429.497    1538.0548    1242.5352    295.51958    177.30532   -329.92224     22561.79   0.71867176 
  367000       367000    1699.9966    1531.9662    1220.3419    311.62426    174.13842    510.66792     22561.79   0.71867176 
  368000       368000    1301.4261    1547.6337    1204.6765    342.95718    171.90302   -748.25898     22561.79   0.71867176 
  369000       369000    958.08753     1527.831    1212.7642    315.06683     173.0571   -1731.5296     22561.79   0.71867176 
  370000       370000    1383.6217    1606.4555    1258.9264    347.52913    179.64429   -677.22304     22561.79   0.71867176 
  371000       371000     1334.402    1556.4523    1222.7461    333.70616    174.48149    -674.8416     22561.79   0.71867176 
  372000       372000    2257.5584    1556.1357    1217.5816    338.55409    173.74453    2131.7211     22561.79   0.71867176 
  373000       373000    2016.9151    1547.3632    1243.9358    303.42745    177.50518    1427.0333     22561.79   0.71867176 
  374000       374000    1373.4428    1583.8688    1228.7408    355.12794    175.33692   -639.51391     22561.79   0.71867176 
  375000       375000    961.59779    1558.1382    1231.4243     326.7139    175.71983   -1812.9692     22561.79   0.71867176 
  376000       376000    1171.3705    1528.1744    1230.0071    298.16728    175.51761   -1084.3765     22561.79   0.71867176 
  377000       377000    1736.9142    1575.5843    1244.4599    331.12445    177.57996    490.30403     22561.79   0.71867176 
  378000       378000    925.08912    1524.3302    1232.5523    291.77787     175.8808   -1821.1768     22561.79   0.71867176 
  379000       379000    1524.4348     1552.432    1224.9777    327.45438    174.79992   -85.087512     22561.79   0.71867176 
  380000       380000    1421.6812    1589.4242    1247.2166    342.20759    177.97335    -509.7944     22561.79   0.71867176 
  381000       381000    1025.1539    1558.0512    1254.2513    303.79993    178.97717    -1619.549     22561.79   0.71867176 
  382000       382000    1371.4975    1577.3219    1236.3528    340.96911    176.42312   -625.52901     22561.79   0.71867176 
  383000       383000    1494.8521    1535.3371    1219.1058    316.23136    173.96203   -123.03968     22561.79   0.71867176 
  384000       384000    1400.9668    1546.3205    1215.4154    330.90514    173.43542   -441.75011     22561.79   0.71867176 
  385000       385000    1094.7255    1591.3922    1275.3979    315.99425    181.99471   -1509.4391     22561.79   0.71867176 
  386000       386000    1351.6901    1550.0032    1197.5904    352.41288    170.89185   -602.70121     22561.79   0.71867176 
  387000       387000    1508.3012    1541.8132    1256.9029    284.91039    179.35553    -101.8478     22561.79   0.71867176 
  388000       388000    1534.9708    1586.0205    1256.1622    329.85834    179.24985   -155.14733     22561.79   0.71867176 
  389000       389000    2120.2928    1546.8362    1213.5523    333.28389    173.16957    1742.8145     22561.79   0.71867176 
  390000       390000    1606.3131    1549.0879    1206.1927    342.89521    172.11937     173.9153     22561.79   0.71867176 
  391000       391000    2139.7214    1586.1424    1262.5538    323.58863     180.1619    1682.4034     22561.79   0.71867176 
  392000       392000     2006.762    1510.7354    1209.0358    301.69953    172.52508     1507.494     22561.79   0.71867176 
  393000       393000    1503.5594    1550.8881     1227.757    323.13111    175.19653   -143.83853     22561.79   0.71867176 
  394000       394000     1731.486    1577.3365    1239.9285    337.40797    176.93336    468.48165     22561.79   0.71867176 
  395000       395000    1311.3552    1538.0151    1218.7383    319.27679    173.90959   -688.85106     22561.79   0.71867176 
  396000       396000     1496.808    1581.2761    1259.8259    321.45015    179.77264    -256.7103     22561.79   0.71867176 
  397000       397000    1887.9288    1550.1536    1208.1336    342.01993    172.39634    1026.5458     22561.79   0.71867176 
  398000       398000    1647.7888     1622.869    1278.6702    344.19878    182.46166     75.73462     22561.79   0.71867176 
  399000       399000    1143.9679    1552.2433    1228.7239    323.51934     175.3345   -1240.8054     22561.79   0.71867176 
  400000       400000    1456.7823    1506.8616    1216.2346    290.62707    173.55231   -152.19798     22561.79   0.71867176 
  401000       401000    1132.6265    1531.0622    1217.3901    313.67214     173.7172   -1210.9016     22561.79   0.71867176 
  402000       402000    1826.8594    1592.2301    1244.1205    348.10961    177.53154    713.07105     22561.79   0.71867176 
  403000       403000    1447.3807    1545.6902    1231.4443    314.24594    175.72268   -298.77611     22561.79   0.71867176 
  404000       404000    1679.7346    1568.8219    1257.0875    311.73442    179.38188    337.07898     22561.79   0.71867176 
  405000       405000     1365.329    1535.1759    1239.2322    295.94363      176.834   -516.18821     22561.79   0.71867176 
  406000       406000    1579.4804    1541.5112    1243.7879    297.72327    177.48408    115.39351     22561.79   0.71867176 
  407000       407000    1409.6326    1552.0065    1220.4629    331.54358    174.15568   -432.69399     22561.79   0.71867176 
  408000       408000    1104.5626    1472.2749     1185.513    286.76189    169.16846   -1117.5287     22561.79   0.71867176 
  409000       409000      1803.56     1550.832    1257.9083    292.92371    179.49901    768.07541     22561.79   0.71867176 
  410000       410000    1624.9863    1577.7969    1210.8493     366.9476    172.78385    143.41534     22561.79   0.71867176 
  411000       411000    1323.4004    1528.1473    1207.3232    320.82416    172.28069   -622.25434     22561.79   0.71867176 
  412000       412000    1392.5232    1555.0454    1208.8494      346.196    172.49848   -493.92775     22561.79   0.71867176 
  413000       413000    1715.5439    1558.4137    1258.2326    300.18113    179.54528    477.54071     22561.79   0.71867176 
  414000       414000     1972.087    1592.6707    1245.7068    346.96391     177.7579    1153.0988     22561.79   0.71867176 
  415000       415000    1364.8065    1556.9454    1227.8789    329.06651    175.21392   -583.93711     22561.79   0.71867176 
  416000       416000    1169.0073    1492.9469    1208.6727    284.27425    172.47326   -984.49748     22561.79   0.71867176 
  417000       417000    1220.6022    1555.3829    1228.9272    326.45571    175.36351   -1017.4452     22561.79   0.71867176 
  418000       418000    1858.7282    1517.4326    1200.6399    316.79264    171.32702     1037.245     22561.79   0.71867176 
  419000       419000    1423.2775    1530.0651    1216.1974    313.86768    173.54701   -324.54215     22561.79   0.71867176 
  420000       420000    1791.6734    1515.1282     1214.947    300.18123    173.36858    840.45931     22561.79   0.71867176 
  421000       421000    1955.2688    1528.8119    1210.4011    318.41082    172.71989     1296.062     22561.79   0.71867176 
  422000       422000    1821.4753    1547.9833    1210.6752     337.3081    172.75901    831.18028     22561.79   0.71867176 
  423000       423000    1344.2028    1532.6341    1246.6237    286.01044    177.88873   -572.66899     22561.79   0.71867176 
  424000       424000    1793.8979    1548.2109    1262.8584    285.35248    180.20537    746.67701     22561.79   0.71867176 
  425000       425000    1640.6618    1598.1194     1261.432    336.68737    180.00183    129.29224     22561.79   0.71867176 
  426000       426000    1746.8684    1539.1099    1217.0134     322.0965    173.66345    631.40708     22561.79   0.71867176 
  427000       427000    1571.8142    1579.7422    1221.2297    358.51259     174.2651   -24.094382     22561.79   0.71867176 
  428000       428000    1453.9617    1574.8614    1240.3147    334.54661    176.98847   -367.43081     22561.79   0.71867176 
  429000       429000    1462.2641    1534.5435    1217.8881    316.65545    173.78826   -219.66722     22561.79   0.71867176 
  430000       430000    1324.4622    1571.3825     1184.883    386.49957    169.07855   -750.42528     22561.79   0.71867176 
  431000       431000     1416.488    1518.8206    1221.0595    297.76105    174.24082   -311.00285     22561.79   0.71867176 
  432000       432000    2076.5395    1524.8665    1217.7644    307.10208    173.77062    1676.6111     22561.79   0.71867176 
  433000       433000    1055.1192    1577.9994    1265.6627    312.33675    180.60553   -1589.1057     22561.79   0.71867176 
  434000       434000     1715.285    1527.1912    1218.9534    308.23786    173.94028    571.64321     22561.79   0.71867176 
  435000       435000    1407.5067    1527.0785    1215.5801    311.49843    173.45892   -363.39538     22561.79   0.71867176 
  436000       436000    1185.6439    1554.6459    1222.6859    331.95997     174.4729   -1121.4484     22561.79   0.71867176 
  437000       437000     1534.871    1547.0597    1210.5359    336.52379    172.73914   -37.043286     22561.79   0.71867176 
  438000       438000    1396.1039    1534.5732    1196.6007    337.97256    170.75063    -420.8276     22561.79   0.71867176 
  439000       439000    902.94944    1505.6668    1209.1774    296.48941    172.54529    -1831.742     22561.79   0.71867176 
  440000       440000    1126.2492    1549.9341    1215.1388    334.79525    173.39596   -1287.6372     22561.79   0.71867176 
  441000       441000    1551.6245    1571.4882    1221.8741    349.61417    174.35705   -60.368631     22561.79   0.71867176 
  442000       442000    858.12461    1522.2248    1190.9527    331.27211    169.94468   -2018.2927     22561.79   0.71867176 
  443000       443000    1715.4885    1506.3598    1206.6081     299.7517    172.17865    635.57132     22561.79   0.71867176 
  444000       444000    2174.5281    1521.1092    1214.2486    306.86069    173.26892    1985.8306     22561.79   0.71867176 
  445000       445000    2100.4467    1546.6823    1227.3231    319.35922    175.13461    1682.9668     22561.79   0.71867176 
  446000       446000    1444.0993    1561.7975    1192.5714    369.22609    170.17566   -357.70122     22561.79   0.71867176 
  447000       447000    1003.8965    1558.9618    1200.6744    358.28745    171.33193   -1686.9207     22561.79   0.71867176 
  448000       448000    1572.7455    1509.7509    1206.7892    302.96166     172.2045     191.4496     22561.79   0.71867176 
  449000       449000    1768.0992    1541.2693    1222.2662    319.00305    174.41301    689.36775     22561.79   0.71867176 
  450000       450000    1362.8346    1564.8502       1252.4    312.45023    178.71299   -613.95331     22561.79   0.71867176 
  451000       451000    1698.8824    1559.0727     1238.793    320.27964    176.77133    424.90111     22561.79   0.71867176 
  452000       452000    1750.1971    1565.6314    1233.9875    331.64395    176.08559    560.92081     22561.79   0.71867176 
  453000       453000    1253.0745    1504.0307    1206.0202    298.01049    172.09476   -762.69061     22561.79   0.71867176 
  454000       454000    1551.0465    1565.3714    1241.5361    323.83536    177.16275   -43.535473     22561.79   0.71867176 
  455000       455000    1680.0806    1555.2371    1208.5375     346.6996    172.45398    379.41655     22561.79   0.71867176 
  456000       456000    1215.1634    1512.4811    1225.4372    287.04385     174.8655   -903.58981     22561.79   0.71867176 
  457000       457000    1259.8642    1522.7299    1211.3422    311.38769    172.85419   -798.88533     22561.79   0.71867176 
  458000       458000    1307.5206    1464.1182    1203.3352      260.783    171.71163   -475.92189     22561.79   0.71867176 
  459000       459000    1302.1083    1557.2739     1203.243    354.03094    171.69846   -775.48362     22561.79   0.71867176 
  460000       460000    1219.9511    1492.8594    1206.7605    286.09889     172.2004   -829.40627     22561.79   0.71867176 
  461000       461000    1439.6222    1547.8396    1211.1281    336.71149    172.82364   -328.88747     22561.79   0.71867176 
  462000       462000     890.9598    1503.2925    1216.5576     286.7349    173.59841   -1860.9642     22561.79   0.71867176 
  463000       463000    1356.5376    1579.5721    1202.8298     376.7423     171.6395   -677.83283     22561.79   0.71867176 
  464000       464000    1850.1662    1556.9623    1230.3119    326.65038     175.5611    891.08755     22561.79   0.71867176 
  465000       465000    1831.3029    1553.4793    1211.5303      341.949    172.88104    844.34431     22561.79   0.71867176 
  466000       466000    2056.0411    1556.6876     1230.862    325.82565    175.63959    1517.6046     22561.79   0.71867176 
  467000       467000    1739.4606    1563.4519    1239.0603    324.39154    176.80947     534.9152     22561.79   0.71867176 
  468000       468000    1174.3539    1504.2877    1213.3218    290.96596    173.13667   -1002.7147     22561.79   0.71867176 
  469000       469000    1619.1564    1568.0897     1225.918     342.1717     174.9341    155.19884     22561.79   0.71867176 
  470000       470000    1712.7011    1584.1769    1284.9109      299.266    183.35218    390.60314     22561.79   0.71867176 
  471000       471000    1652.0563    1580.6001    1224.8591    355.74092    174.78301    217.16531     22561.79   0.71867176 
  472000       472000    1816.4507    1525.6523    1229.1025    296.54978    175.38852    883.77668     22561.79   0.71867176 
  473000       473000    1679.6927    1566.3194    1253.7905    312.52892    178.91141    344.55715     22561.79   0.71867176 
  474000       474000     744.1008    1509.5204     1207.255    302.26544    172.27096   -2326.2167     22561.79   0.71867176 
  475000       475000    1106.5589     1501.052    1181.1849    319.86709    168.55085   -1198.9192     22561.79   0.71867176 
  476000       476000    1328.4615    1544.8061    1243.4712    301.33486    177.43889   -657.50133     22561.79   0.71867176 
  477000       477000    1186.9813    1573.3393    1250.7947    322.54453    178.48393   -1174.1955     22561.79   0.71867176 
  478000       478000    1206.7019    1574.6916     1251.186    323.50561    178.53976   -1118.3719     22561.79   0.71867176 
  479000       479000    1936.0936    1528.4418    1216.6223     311.8195    173.60764    1238.9107     22561.79   0.71867176 
  480000       480000    1458.3257    1537.5604    1226.0791    311.48132    174.95709   -240.80519     22561.79   0.71867176 
  481000       481000    1648.0276     1587.838    1236.3367    351.50131    176.42081     182.9245     22561.79   0.71867176 
  482000       482000    1441.2991    1536.7407    1214.6598    322.08094     173.3276   -290.06034     22561.79   0.71867176 
  483000       483000    2010.3774    1637.9002    1284.1135    353.78677    183.23839    1132.0098     22561.79   0.71867176 
  484000       484000    1183.8885    1553.0376    1216.4795    336.55813    173.58727   -1121.8955     22561.79   0.71867176 
  485000       485000    1026.0242    1535.9952    1202.6153    333.37989    171.60889   -1549.8726     22561.79   0.71867176 
  486000       486000    1437.0356    1513.4967    1220.2329    293.26374    174.12287   -232.37588     22561.79   0.71867176 
  487000       487000    1570.5348     1559.871    1218.7516    341.11936    173.91149    32.408879     22561.79   0.71867176 
  488000       488000    1022.9767    1543.1428    1218.2541    324.88871    173.84049   -1580.8572     22561.79   0.71867176 
  489000       489000    1594.7254    1558.7702    1229.4298    329.34044    175.43522    109.27274     22561.79   0.71867176 
  490000       490000    1315.3575    1513.1281    1226.7378    286.39033    175.05109   -601.05232     22561.79   0.71867176 
  491000       491000    1946.8553    1570.6314    1238.4326    332.19874     176.7199    1143.3968     22561.79   0.71867176 
  492000       492000    1431.3195    1511.8713    1189.7333      322.138    169.77068   -244.80809     22561.79   0.71867176 
  493000       493000    1554.8011     1541.725    1234.6777    307.04728    176.18409    39.740051     22561.79   0.71867176 
  494000       494000     1669.339    1590.6848    1251.6552    339.02953    178.60672     239.0413     22561.79   0.71867176 
  495000       495000     1047.664    1552.1519    1208.2218    343.93012    172.40892   -1533.2088     22561.79   0.71867176 
  496000       496000    1280.1073    1525.1716    1217.9878     307.1838     173.8025   -744.78444     22561.79   0.71867176 
  497000       497000    2215.8467    1555.9076    1229.3797    326.52791    175.42807    2005.6466     22561.79   0.71867176 
  498000       498000    1911.4499    1584.5815    1256.1861     328.3954    179.25325     993.3988     22561.79   0.71867176 
  499000       499000    1088.0729    1556.3201    1248.8693    307.45074    178.20918   -1423.0683     22561.79   0.71867176 
  500000       500000    1138.2174    1460.1271    1172.2108    287.91639    167.27027   -978.32849     22561.79   0.71867176 
  501000       501000      1900.81    1528.3869     1181.024    347.36288     168.5279    1131.8455     22561.79   0.71867176 
  502000       502000     1588.041    1535.2387     1224.009     311.2297    174.66171    160.47346     22561.79   0.71867176 
  503000       503000    1804.8059    1508.3424    1192.6404    315.70199    170.18552    900.99372     22561.79   0.71867176 
  504000       504000    1732.1959    1519.4101     1202.846    316.56408    171.64182    646.68554     22561.79   0.71867176 
  505000       505000    1716.9425    1580.6606    1240.5374    340.12319    177.02025    414.17962     22561.79   0.71867176 
  506000       506000    1497.6911    1535.9517    1184.1714    351.78029    168.97701   -116.27934     22561.79   0.71867176 
  507000       507000    1900.7632    1590.0981    1238.2378    351.86033     176.6921    944.15437     22561.79   0.71867176 
  508000       508000    1412.5946    1538.5717     1227.039     311.5327    175.09406   -382.86185     22561.79   0.71867176 
  509000       509000    1154.0111    1585.1147    1244.9972    340.11751    177.65664   -1310.1837     22561.79   0.71867176 
  510000       510000    1114.0779    1541.5993    1227.5729    314.02641    175.17025   -1299.2968     22561.79   0.71867176 
  511000       511000    1469.1246    1598.3027    1256.3472    341.95547    179.27625   -392.59035     22561.79   0.71867176 
  512000       512000    1841.7537    1535.5996    1211.7412    323.85847    172.91112     930.4448     22561.79   0.71867176 
  513000       513000     1396.501    1589.7472    1226.6407    363.10644    175.03724     -587.302     22561.79   0.71867176 
  514000       514000    1715.0477     1566.698    1233.3666    333.33141      175.997    450.85522     22561.79   0.71867176 
  515000       515000      1387.62     1542.957    1218.8323    324.12474      173.923   -472.09085     22561.79   0.71867176 
  516000       516000    1075.3996    1488.3847    1180.3028    308.08185    168.42498    -1255.119     22561.79   0.71867176 
  517000       517000    1828.1833    1552.7762    1190.7594    362.01678     169.9171    837.00052     22561.79   0.71867176 
  518000       518000    1755.5361    1530.3434    1223.1029    307.24052     174.5324    684.39202     22561.79   0.71867176 
  519000       519000    1914.7373    1515.9206    1179.2225     336.6981    168.27082    1212.0595     22561.79   0.71867176 
  520000       520000    1700.8778    1558.8692    1237.6322    321.23705    176.60568    431.58361     22561.79   0.71867176 
  521000       521000    1795.9621    1553.5224    1204.9209    348.60148     171.9379    736.80771     22561.79   0.71867176 
  522000       522000    1672.7589     1532.024     1218.776      313.248    173.91497    427.71281     22561.79   0.71867176 
  523000       523000    1345.9491    1552.6787    1245.6719    307.00675    177.75292   -628.27974     22561.79   0.71867176 
  524000       524000      1128.21    1540.3686    1180.7072    359.66139    168.48269   -1252.6072     22561.79   0.71867176 
  525000       525000    1613.4289    1540.1554    1215.2871    324.86828    173.41712    222.68842     22561.79   0.71867176 
  526000       526000     1924.236    1529.9722    1213.6989     316.2733    173.19048    1198.2226     22561.79   0.71867176 
  527000       527000    2046.5638    1581.7332    1249.0525    332.68066    178.23532    1412.6847     22561.79   0.71867176 
  528000       528000    1800.8832    1583.0341    1256.6751    326.35903    179.32303     662.0737     22561.79   0.71867176 
  529000       529000    1515.6783    1527.8118    1218.1278      309.684    173.82247   -36.875335     22561.79   0.71867176 
  530000       530000    1613.5447    1547.4066    1231.1712    316.23547    175.68372    201.00272     22561.79   0.71867176 
  531000       531000    1607.8936    1558.9187    1222.1073    336.81141    174.39033    148.84167     22561.79   0.71867176 
  532000       532000    1500.9702    1576.5622    1241.9434    334.61872    177.22088   -229.73457     22561.79   0.71867176 
  533000       533000    1312.8757    1575.7295    1232.3355    343.39396    175.84986   -798.84912     22561.79   0.71867176 
  534000       534000    1705.1684    1568.7247    1244.6267    324.09802    177.60377    414.67143     22561.79   0.71867176 
  535000       535000    2364.2146    1563.5118    1232.8781    330.63368    175.92729    2433.4472     22561.79   0.71867176 
  536000       536000     1278.025    1598.0092    1276.2424    321.76684    182.11521   -972.47646     22561.79   0.71867176 
  537000       537000    1429.4398    1530.6169    1205.4694    325.14748    172.01616   -307.49105     22561.79   0.71867176 
  538000       538000     1212.484    1585.4011    1224.9165    360.48456     174.7912   -1133.3469     22561.79   0.71867176 
  539000       539000    1432.0259     1563.407    1252.5946    310.81246    178.74076    -399.2857     22561.79   0.71867176 
  540000       540000    1510.8028    1553.7142    1218.1897     335.5245    173.83131   -130.41372     22561.79   0.71867176 
  541000       541000    1611.3913     1535.747    1214.5507    321.19628    173.31203    229.89361     22561.79   0.71867176 
  542000       542000    1204.8032    1596.8524    1239.7994    357.05297    176.91494   -1191.4921     22561.79   0.71867176 
  543000       543000    1485.6507    1549.3152    1232.1447    317.17046    175.82264   -193.48517     22561.79   0.71867176 
  544000       544000    1817.1075    1508.7256    1217.3156    291.41003    173.70658    937.21525     22561.79   0.71867176 
  545000       545000    1508.6082    1559.5559    1250.4214    309.13446    178.43065   -154.83706     22561.79   0.71867176 
  546000       546000    1537.4116    1569.0865     1229.338    339.74854    175.42213   -96.264681     22561.79   0.71867176 
  547000       547000     1643.339    1564.3966    1234.3547     330.0419    176.13799    239.91688     22561.79   0.71867176 
  548000       548000    1856.0898    1530.8523    1229.7539    301.09844    175.48147    988.44211     22561.79   0.71867176 
  549000       549000    1595.7239    1579.9618    1273.3767    306.58514    181.70629    47.903293     22561.79   0.71867176 
  550000       550000    1735.5721    1566.4854    1227.1241    339.36123    175.10622    513.87827     22561.79   0.71867176 
  551000       551000    762.23065    1498.8735    1178.8753     319.9982    168.22128     -2238.76     22561.79   0.71867176 
  552000       552000    1201.0231    1548.7208    1223.2476    325.47329    174.55304   -1056.7017     22561.79   0.71867176 
  553000       553000    1546.3114    1572.5902    1240.0739    332.51629     176.9541   -79.865036     22561.79   0.71867176 
  554000       554000    1431.5901    1541.1842    1237.0897     304.0945    176.52826   -333.07166     22561.79   0.71867176 
  555000       555000    1768.1432    1544.8963    1205.5817    339.31464    172.03219    678.47835     22561.79   0.71867176 
  556000       556000    1218.7656    1529.9698    1247.5547    282.41512    178.02159   -945.79308     22561.79   0.71867176 
  557000       557000    989.87629    1531.6675     1226.175    305.49245    174.97078   -1646.5787     22561.79   0.71867176 
  558000       558000    1835.6408    1643.2714    1275.7387     367.5327    182.04335    584.63737     22561.79   0.71867176 
  559000       559000    1271.4365    1529.5987    1285.6452    243.95341    183.45697   -784.59078     22561.79   0.71867176 
  560000       560000    1328.7841    1540.4672    1207.5368    332.93039    172.31118   -643.33428     22561.79   0.71867176 
  561000       561000    2006.2815    1575.7242    1206.2669    369.45724    172.12997    1308.5237     22561.79   0.71867176 
  562000       562000    1304.8887    1532.6679    1238.5891    294.07875    176.74223   -692.25251     22561.79   0.71867176 
  563000       563000    1836.0155    1544.7467    1225.3408    319.40587    174.85175    885.20622     22561.79   0.71867176 
  564000       564000    1381.2559    1574.7289    1224.2992    350.42971    174.70311   -587.99129     22561.79   0.71867176 
  565000       565000     2029.542    1552.0131    1252.6923    299.32083     178.7547    1451.2768     22561.79   0.71867176 
  566000       566000    2050.0578    1523.1989     1231.625    291.57392    175.74847    1601.1974     22561.79   0.71867176 
  567000       567000    1927.5566    1565.3284    1206.3434      358.985    172.14088    1100.8619     22561.79   0.71867176 
  568000       568000    1525.5708    1559.6838    1220.1988    339.48503      174.118   -103.67415     22561.79   0.71867176 
  569000       569000    1313.4274    1575.9427    1253.6998    322.24289    178.89847    -797.8203     22561.79   0.71867176 
  570000       570000    1119.0769    1555.3801    1200.4079     354.9722     171.2939   -1325.9861     22561.79   0.71867176 
  571000       571000    1218.9972    1529.8781    1178.8245    351.05365    168.21403   -944.81029     22561.79   0.71867176 
  572000       572000    1360.9359    1494.3705    1185.0356    309.33489    169.10034    -405.5263     22561.79   0.71867176 
  573000       573000    1358.6121    1542.7141    1230.9363    311.77774    175.65021   -559.51155     22561.79   0.71867176 
  574000       574000    1733.0854    1591.4944    1248.7179    342.77647    178.18757    430.31479     22561.79   0.71867176 
  575000       575000    2116.8166    1551.8919    1239.5999    312.29197    176.88647    1716.8848     22561.79   0.71867176 
  576000       576000    2000.3081    1588.8622    1256.4392    332.42302    179.28937    1250.4411     22561.79   0.71867176 
  577000       577000    1413.7376    1539.3386    1207.5672    331.77133    172.31552   -381.71892     22561.79   0.71867176 
  578000       578000    1921.1432    1533.5543    1215.9895    317.56483    173.51734    1177.9364     22561.79   0.71867176 
  579000       579000    1820.2425     1538.285     1243.494    294.79098    177.44214     856.9079     22561.79   0.71867176 
  580000       580000    966.42527    1543.0442    1219.2907    323.75354    173.98841   -1752.4251     22561.79   0.71867176 
  581000       581000    1847.1603    1594.4726    1230.6914    363.78122    175.61525    767.95303     22561.79   0.71867176 
  582000       582000    1567.4825    1569.3232    1264.0967    305.22653    180.38207   -5.5942706     22561.79   0.71867176 
  583000       583000    1513.6581     1613.665    1265.2568     348.4082    180.54761   -303.93499     22561.79   0.71867176 
  584000       584000    1368.6943    1545.5198    1229.7136    315.80627    175.47572   -537.39729     22561.79   0.71867176 
  585000       585000    1306.3833    1525.0316     1210.025     315.0066    172.66623    -664.5027     22561.79   0.71867176 
  586000       586000    1246.5104    1514.5468    1204.4099    310.13692    171.86497   -814.59982     22561.79   0.71867176 
  587000       587000    1091.7323    1599.0038    1240.9732    358.03063    177.08243   -1541.6688     22561.79   0.71867176 
  588000       588000    1769.6974    1532.8018    1223.5426    309.25913    174.59515    719.95887     22561.79   0.71867176 
  589000       589000    1622.2101    1561.0897    1234.7973    326.29247    176.20114    185.75325     22561.79   0.71867176 
  590000       590000    1411.0339    1555.1386    1244.4904    310.64818    177.58432   -437.95428     22561.79   0.71867176 
  591000       591000    1197.0914    1508.5789    1209.9464    298.63253    172.65501   -946.65376     22561.79   0.71867176 
[...]
  857000       857000    1473.2992    1559.2992    1228.6748    330.62438    175.32749   -261.36589     22561.79   0.71867176 
  858000       858000    1133.3499    1507.9086    1194.7484    313.16017    170.48632   -1138.3358     22561.79   0.71867176 
  859000       859000    1465.8397    1524.5635    1182.8809    341.68257    168.79287   -178.46978     22561.79   0.71867176 
  860000       860000    1183.8539    1535.9834    1250.6063    285.37715    178.45703   -1070.1706     22561.79   0.71867176 
  861000       861000    1402.7748    1570.0221    1242.9814    327.04072    177.36899   -508.28779     22561.79   0.71867176 
  862000       862000    1642.7419    1517.3722    1219.2432    298.12901    173.98163    381.01598     22561.79   0.71867176 
  863000       863000     1360.043    1546.4712    1203.2063    343.26498    171.69322   -566.58145     22561.79   0.71867176 
  864000       864000    1273.0993    1564.0984    1216.2179    347.88056    173.54993    -884.3869     22561.79   0.71867176 
  865000       865000    1606.2126    1517.9731    1201.6818    316.29128    171.47568    268.17219     22561.79   0.71867176 
  866000       866000    1499.4783    1554.0647    1212.9936    341.07108    173.08985   -165.89579     22561.79   0.71867176 
  867000       867000    1771.7653    1583.1074    1270.4568    312.65055    181.28964    573.35771     22561.79   0.71867176 
  868000       868000     1778.627    1538.5094    1220.8462    317.66317    174.21039    729.75073     22561.79   0.71867176 
  869000       869000    1885.1479    1516.8981    1236.8477    280.05039    176.49373    1119.1625     22561.79   0.71867176 
  870000       870000    1508.7327    1586.5151    1234.6461    351.86899    176.17957   -236.39145     22561.79   0.71867176 
  871000       871000    1390.3198    1516.1874    1228.3408    287.84658    175.27983   -382.52906     22561.79   0.71867176 
  872000       872000    1746.1512     1509.075    1219.9375    289.13749    174.08072    720.50744     22561.79   0.71867176 
  873000       873000    1723.8624    1561.8532    1234.7389    327.11422    176.19282    492.36873     22561.79   0.71867176 
  874000       874000    1795.8462    1587.2966    1238.3804    348.91623    176.71244    633.81121     22561.79   0.71867176 
  875000       875000    1469.3777      1514.84    1211.9645    302.87547    172.94299   -138.16604     22561.79   0.71867176 
  876000       876000    1515.8021    1534.6485    1250.9645    283.68405    178.50815   -57.276902     22561.79   0.71867176 
  877000       877000    1791.1979    1498.3974     1214.756    283.64134    173.34133    889.86162     22561.79   0.71867176 
  878000       878000     1695.219    1561.1731    1262.9374    298.23573    180.21664    407.38401     22561.79   0.71867176 
  879000       879000     1289.495     1507.782    1205.1847    302.59737    171.97554   -663.40466     22561.79   0.71867176 
  880000       880000     1957.791    1565.3262    1222.3075    343.01866     174.4189    1192.7553     22561.79   0.71867176 
  881000       881000    1880.1204    1558.2942    1229.5722    328.72204    175.45555    978.07439     22561.79   0.71867176 
  882000       882000    1146.5117    1559.0804    1246.0025    313.07791    177.80009   -1253.8536     22561.79   0.71867176 
  883000       883000    1774.9235    1562.5578    1229.5169    333.04089    175.44766      645.409     22561.79   0.71867176 
  884000       884000    1188.8524    1504.7567     1193.855    310.90173    170.35883   -960.07711     22561.79   0.71867176 
  885000       885000    1757.2057    1573.7508    1256.7778    316.97306    179.33768    557.54488     22561.79   0.71867176 
  886000       886000    1299.8367    1516.3433    1195.7221    320.62128    170.62525   -657.99379     22561.79   0.71867176 
  887000       887000    1668.2452    1567.2392    1232.8963    334.34295    175.92988    306.97109     22561.79   0.71867176 
  888000       888000    1632.0434     1592.024    1241.2039     350.8201    177.11534    121.62467     22561.79   0.71867176 
  889000       889000    2268.0877    1563.1363      1243.43    319.70625    177.43301    2142.4453     22561.79   0.71867176 
  890000       890000    1458.5089     1520.596    1222.7856    297.81047    174.48712   -188.69146     22561.79   0.71867176 
  891000       891000    1373.9808    1556.7724    1205.4792    351.29328    172.01756   -555.52908     22561.79   0.71867176 
  892000       892000    1357.3683     1543.596    1218.7014    324.89468    173.90432     -565.972     22561.79   0.71867176 
  893000       893000    1884.0143    1591.4334    1229.5532    361.88019    175.45283    889.19427     22561.79   0.71867176 
  894000       894000    1856.4727    1570.9184    1239.7724    331.14604    176.91107    867.83915     22561.79   0.71867176 
  895000       895000    2179.4338    1569.6303    1216.2611    353.36916     173.5561    1853.2779     22561.79   0.71867176 
  896000       896000    1566.2404    1533.8336    1211.4025    322.43108     172.8628    98.488897     22561.79   0.71867176 
  897000       897000    1494.3262    1574.5566     1230.324    344.23265    175.56283   -243.83133     22561.79   0.71867176 
  898000       898000    1625.6058    1567.3686    1230.8858    336.48286    175.64299     176.9908     22561.79   0.71867176 
  899000       899000    1897.3362    1459.2891    1186.1795    273.10961    169.26357    1331.2859     22561.79   0.71867176 
  900000       900000    1151.0844    1559.0047    1236.1298    322.87482     176.3913   -1239.7264     22561.79   0.71867176 
  901000       901000    1710.9003    1549.9293    1225.2229     324.7064    174.83492    489.21324     22561.79   0.71867176 
  902000       902000    1563.0581     1583.926      1223.06    360.86609    174.52627   -63.420683     22561.79   0.71867176 
  903000       903000    1436.0932    1505.8143     1208.043    297.77134    172.38341   -211.89207     22561.79   0.71867176 
  904000       904000    1500.8611    1546.4603    1209.6626    336.79776    172.61452   -138.58239     22561.79   0.71867176 
  905000       905000    1374.7761    1539.4976    1224.4035    315.09405      174.718    -500.6115     22561.79   0.71867176 
  906000       906000    1432.6031    1575.9836    1206.6184    369.36525    172.18012   -435.75334     22561.79   0.71867176 
  907000       907000     1671.284     1537.312     1227.904    309.40795     175.2175    407.15957     22561.79   0.71867176 
  908000       908000      1418.42    1480.1824    1152.5488    327.63358    164.46458    -187.7046     22561.79   0.71867176 
  909000       909000    1432.5225    1508.7695    1202.0341    306.73542    171.52596   -231.72515     22561.79   0.71867176 
  910000       910000    1193.1471    1510.3325    1206.5916    303.74084     172.1763   -963.97035     22561.79   0.71867176 
  911000       911000    824.66385    1521.3973    1204.3189    317.07838      171.852   -2117.4699     22561.79   0.71867176 
  912000       912000    1315.1838    1535.3001    1234.0678     301.2323    176.09705   -668.96402     22561.79   0.71867176 
  913000       913000    1405.8398    1580.3696    1242.3807    337.98887    177.28328   -530.42019     22561.79   0.71867176 
  914000       914000    1458.0876    1482.4766    1188.9996    293.47699    169.66598   -74.121647     22561.79   0.71867176 
  915000       915000    1650.2692    1542.4205    1231.7467    310.67386    175.76584    327.76701     22561.79   0.71867176 
  916000       916000    1637.7752    1609.0528    1256.8635    352.18925    179.34992    87.291466     22561.79   0.71867176 
  917000       917000    1930.0569    1566.4103    1221.7436    344.66662    174.33844    1105.1728     22561.79   0.71867176 
  918000       918000    1383.6452     1581.793    1267.6278     314.1652    180.88594   -602.19858     22561.79   0.71867176 
  919000       919000    1381.0808    1542.4847    1220.2884    322.19625    174.13078   -490.52889     22561.79   0.71867176 
  920000       920000    984.38872    1529.4519     1220.479    308.97293    174.15798   -1656.5229     22561.79   0.71867176 
  921000       921000    1511.6227    1567.4547    1213.4069    354.04783    173.14881   -169.68131     22561.79   0.71867176 
  922000       922000    1738.7211    1594.8305    1251.4493    343.38118    178.57734    437.30347     22561.79   0.71867176 
  923000       923000     1604.264    1546.9986    1218.4266      328.572     173.8651     174.0375     22561.79   0.71867176 
  924000       924000    1689.9928    1553.5034    1245.4237    308.07971     177.7175    414.81023     22561.79   0.71867176 
  925000       925000    1734.3609    1563.8176     1276.255    287.56265    182.11701    518.30462     22561.79   0.71867176 
  926000       926000    1990.8252    1530.8573     1236.576    294.28136    176.45496    1397.9064     22561.79   0.71867176 
  927000       927000    1310.9778    1586.6054      1242.76    343.84547     177.3374   -837.67072     22561.79   0.71867176 
  928000       928000    1438.2448    1482.4871    1189.0096    293.47742    169.66742    -134.4585     22561.79   0.71867176 
  929000       929000    1630.7397    1548.2925    1223.0929    325.19957    174.53097    250.56863     22561.79   0.71867176 
  930000       930000    1867.2855    1546.1438    1248.1553    297.98854    178.10729    975.99425     22561.79   0.71867176 
  931000       931000    1938.9301    1489.7049    1185.4778    304.22712    169.16344    1365.2576     22561.79   0.71867176 
  932000       932000     2016.274    1557.4554    1218.8351    338.62035     173.9234    1394.4134     22561.79   0.71867176 
  933000       933000    1750.1379    1547.3262    1213.5094     333.8168    173.16344    616.37291     22561.79   0.71867176 
  934000       934000    1196.8245    1528.1315    1202.4235    325.70797    171.58153   -1006.8881     22561.79   0.71867176 
  935000       935000    1546.7961    1574.3115    1222.9113    351.40018    174.50506   -83.623084     22561.79   0.71867176 
  936000       936000    1283.9215    1497.9081    1186.7332    311.17486    169.34258   -650.33493     22561.79   0.71867176 
  937000       937000     1670.628    1557.2377    1237.4909    319.74683    176.58552    344.60878     22561.79   0.71867176 
  938000       938000    1665.6989    1547.1117    1203.0314    344.08032    171.66826    360.40305     22561.79   0.71867176 
  939000       939000    1225.4003    1546.5262    1241.6689     304.8573     177.1817   -975.94619     22561.79   0.71867176 
  940000       940000    1243.1248    1548.1458    1213.8112    334.33455    173.20652   -927.00113     22561.79   0.71867176 
  941000       941000    1399.1244    1498.7739    1186.4507     312.3232    169.30227   -302.84864     22561.79   0.71867176 
  942000       942000     1577.507    1561.4305    1239.2744    322.15606    176.84002    48.858852     22561.79   0.71867176 
  943000       943000    1097.7404    1522.6417    1205.6763    316.96544    172.04569   -1291.3344     22561.79   0.71867176 
  944000       944000    1335.1021    1565.3306    1235.4755    329.85514    176.29792   -699.69638     22561.79   0.71867176 
  945000       945000     1876.166    1548.9176    1219.6299    329.28761    174.03682    994.55355     22561.79   0.71867176 
  946000       946000    1431.6417    1639.0165    1270.3643    368.65222    181.27644   -630.24096     22561.79   0.71867176 
  947000       947000    1519.6387    1536.4012    1191.5688    344.83243    170.03259   -50.943618     22561.79   0.71867176 
  948000       948000    1703.0913    1580.9781    1222.0934    358.88463    174.38836    371.11902     22561.79   0.71867176 
  949000       949000    1911.4723    1509.7032     1201.523    308.18022    171.45303    1221.0322     22561.79   0.71867176 
  950000       950000     1226.389    1544.4134    1229.4693     314.9441    175.44086   -966.52033     22561.79   0.71867176 
  951000       951000     1890.831    1590.7398    1246.9622    343.77754    177.93704    912.01896     22561.79   0.71867176 
  952000       952000    1598.5477    1516.6234    1202.7348    313.88863    171.62594    248.97925     22561.79   0.71867176 
  953000       953000    1363.0699    1554.4088     1243.492    310.91677    177.44186    -581.5054     22561.79   0.71867176 
  954000       954000    1286.1054    1517.4433    1216.4865    300.95686    173.58826   -703.06821     22561.79   0.71867176 
  955000       955000    1375.0988       1514.8    1202.3895    312.41052    171.57667   -424.57151     22561.79   0.71867176 
  956000       956000    1862.9776    1528.1224    1202.7682    325.35411    171.63072    1017.6716     22561.79   0.71867176 
  957000       957000    1240.2022    1483.1921    1195.0305    288.16158    170.52658   -738.48004     22561.79   0.71867176 
  958000       958000    1380.2455    1536.8647    1222.0386    314.82618    174.38053   -475.98775     22561.79   0.71867176 
  959000       959000    1555.2507    1531.8384    1208.7447    323.09372    172.48353    71.153361     22561.79   0.71867176 
  960000       960000    1601.1935    1542.4119    1220.7301    321.68181    174.19382    178.64528     22561.79   0.71867176 
  961000       961000    1593.8625    1577.0416    1230.8867    346.15488    175.64313    51.120917     22561.79   0.71867176 
  962000       962000    1301.1317    1517.9319    1188.3927    329.53921    169.57937   -658.88575     22561.79   0.71867176 
  963000       963000    1671.2424    1518.6288    1229.9731    288.65575    175.51275     463.8138     22561.79   0.71867176 
  964000       964000    1971.8267    1576.2417     1244.204     332.0377    177.54345    1202.2378     22561.79   0.71867176 
  965000       965000    1334.8822    1521.6823    1207.2621    314.42028    172.27197   -567.71162     22561.79   0.71867176 
  966000       966000    1711.9796    1552.9179    1187.2076    365.71023    169.41028     483.4107     22561.79   0.71867176 
  967000       967000    1629.7252    1529.8682    1213.7265    316.14165    173.19443    303.47942     22561.79   0.71867176 
  968000       968000    1448.2078    1628.2022    1275.9655    352.23679     182.0757   -547.02799     22561.79   0.71867176 
  969000       969000    1874.0948    1533.5321    1226.9183    306.61387    175.07684    1035.0173     22561.79   0.71867176 
  970000       970000    1152.2147    1576.7981    1249.8026    326.99546    178.34235   -1290.3679     22561.79   0.71867176 
  971000       971000    1701.0681    1557.2706    1233.7124    323.55828    176.04633    437.02052     22561.79   0.71867176 
  972000       972000    1491.7787      1583.63    1242.9325    340.69742    177.36202   -279.14885     22561.79   0.71867176 
  973000       973000     1281.008    1545.0389    1240.5726    304.46639    177.02526   -802.42677     22561.79   0.71867176 
  974000       974000    2097.6116    1592.5738    1250.6894    341.88445     178.4689    1534.8799     22561.79   0.71867176 
  975000       975000    1828.3696    1559.8772    1226.9343    332.94283    175.07913    815.98594     22561.79   0.71867176 
  976000       976000    1640.3468    1552.9027    1216.8684    336.03429    173.64276    265.75468     22561.79   0.71867176 
  977000       977000    1296.8552    1567.3205     1231.745    335.57549    175.76559   -821.98162     22561.79   0.71867176 
  978000       978000    1486.2681    1521.2001    1234.7251      286.475    176.19085   -106.16325     22561.79   0.71867176 
  979000       979000    1680.6673    1538.4848    1231.6534    306.83145    175.75252    432.11244     22561.79   0.71867176 
  980000       980000    1648.8377    1484.0192    1194.2647    289.75452    170.41729    500.90653     22561.79   0.71867176 
  981000       981000    1527.1376    1579.3137    1260.3593    318.95441    179.84876   -158.57035     22561.79   0.71867176 
  982000       982000    1290.4361    1526.1011    1199.0344    327.06669    171.09792   -716.21879     22561.79   0.71867176 
  983000       983000    1587.8782    1589.5486    1244.6574    344.89119    177.60815    -5.076445     22561.79   0.71867176 
  984000       984000    1534.9451    1554.1735    1225.6626    328.51084    174.89767   -58.437664     22561.79   0.71867176 
  985000       985000      1043.99    1534.9667    1239.7302    295.23647    176.90506   -1492.1464     22561.79   0.71867176 
  986000       986000    1382.5118     1528.798    1208.4066    320.39147    172.43529   -444.58417     22561.79   0.71867176 
  987000       987000    1522.4414     1530.469    1248.4459    282.02309    178.14876   -24.396954     22561.79   0.71867176 
  988000       988000    1565.7337    1519.3811    1209.3906    309.99057     172.5757    140.87202     22561.79   0.71867176 
  989000       989000     1699.623    1567.6836    1256.1304    311.55311    179.24531    400.98245     22561.79   0.71867176 
  990000       990000    1461.0448    1536.5554    1240.0783    296.47713    176.95473   -229.48723     22561.79   0.71867176 
  991000       991000    1901.9566    1544.3806    1216.4333    327.94729    173.58068    1086.7231     22561.79   0.71867176 
  992000       992000    1423.5247    1579.9504    1239.4652    340.48523    176.86724   -475.39953     22561.79   0.71867176 
  993000       993000     1562.416    1554.7344    1241.4432     313.2912    177.14949    23.345638     22561.79   0.71867176 
  994000       994000     1858.479    1555.6568    1231.2503    324.40643    175.69501    920.31888     22561.79   0.71867176 
  995000       995000    1740.9581    1536.3482    1197.3142    339.03395    170.85245    621.83819     22561.79   0.71867176 
  996000       996000    1011.1389    1559.2329    1238.3157    320.91722    176.70322   -1665.7341     22561.79   0.71867176 
  997000       997000     1500.487    1561.6409    1217.1771     344.4638    173.68682   -185.85517     22561.79   0.71867176 
  998000       998000    1270.8566    1585.9258     1243.919    342.00684    177.50278   -957.53908     22561.79   0.71867176 
  999000       999000    976.72158    1521.7351    1197.0115    324.72365    170.80925   -1656.3718     22561.79   0.71867176 
 1000000      1000000    1519.5721    1593.3491    1248.2711    345.07796    178.12382   -224.21857     22561.79   0.71867176 
 1000001      1000001    1562.3695    1593.1496    1258.1476    335.00204    179.53316   -93.545243     22561.79   0.71867176 
Loop time of 1751.64 on 24 procs for 1000000 steps with 2352 atoms

Performance: 49.325 ns/day, 0.487 hours/ns, 570.893 timesteps/s
92.7% CPU use with 24 MPI tasks x 1 OpenMP threads

MPI task timing breakdown:
Section |  min time  |  avg time  |  max time  |%varavg| %total
---------------------------------------------------------------
Pair    | 828.53     | 864.16     | 903.8      |  62.9 | 49.33
Bond    | 38.874     | 39.655     | 40.566     |   6.8 |  2.26
Kspace  | 222.93     | 264.46     | 295.34     | 114.1 | 15.10
Neigh   | 42.263     | 42.682     | 43.24      |   5.1 |  2.44
Comm    | 403.49     | 411.43     | 420.03     |  21.3 | 23.49
Output  | 0.058749   | 1.9354     | 45.092     | 646.8 |  0.11
Modify  | 13.927     | 17.527     | 20.598     |  51.8 |  1.00
Other   |            | 109.8      |            |       |  6.27

Nlocal:    98 ave 110 max 87 min
Histogram: 4 2 1 3 1 3 4 3 0 3
Nghost:    5678.17 ave 5720 max 5642 min
Histogram: 3 1 2 6 1 4 2 1 2 2
Neighs:    58650.4 ave 65833 max 52195 min
Histogram: 4 3 0 3 1 3 5 2 2 1

Total # of neighbors = 1407610
Ave neighs/atom = 598.474
Ave special neighs/atom = 9.14286
Neighbor list builds = 23765
Dangerous builds = 0

write_data butane_afterr_nvt1.data
Ewald initialization ...
  using 12-bit tables for long-range coulomb (src/kspace.cpp:332)
  G vector (1/distance) = 0.189127
  estimated absolute RMS force accuracy = 0.00400244
  estimated relative force accuracy = 1.20532e-05
  KSpace vectors: actual max1d max3d = 128 4 364
                  kxmax kymax kzmax  = 4 4 4
Total wall time: 0:29:13
