LAMMPS (3 Mar 2020)
  using 1 OpenMP thread(s) per MPI task
units           real
atom_style      full
boundary        p p p


pair_style      lj/cut/coul/long 12.0
pair_modify     tail yes mix geometric
bond_style      harmonic
angle_style     harmonic
dihedral_style  opls

kspace_style    ewald 1.0e-5
#special_bonds   lj/coul 0.0 0.0 0.5

neighbor        2.0 bin
neigh_modify    every 1 delay 0 check yes

read_data       butane_afterr_nvt1_200K.data
  orthogonal box = (0 0 0) to (29.9269 29.9269 29.9269)
  3 by 2 by 4 MPI processor grid
  reading atoms ...
  2352 atoms
  reading velocities ...
  2352 velocities
  scanning bonds ...
  1 = max bonds/atom
  scanning angles ...
  6 = max angles/atom
  scanning dihedrals ...
  11 = max dihedrals/atom
  reading bonds ...
  2184 bonds
  reading angles ...
  4032 angles
  reading dihedrals ...
  4536 dihedrals
  4 = max # of 1-2 neighbors
  6 = max # of 1-3 neighbors
  9 = max # of 1-4 neighbors
  13 = max # of special neighbors
  special bonds CPU = 0.000965969 secs
  read_data CPU = 0.0258527 secs

group           mobile union all
2352 atoms in group mobile

#minimize 1.0e-8 1.0e-10 400000 400000
#write_data buate_after_min.data

#fix DEF all deform 1 x final 0.0 28.0629 y final 0.0 28.0629 z final 0.0 28.0629 units box
#run 1
#unfix DEF

thermo_style    custom step time enthalpy etotal ke pe temp press vol density
#thermo_modify   line multi
thermo          1000
thermo_modify   flush yes
timestep 1.0


## Equil NPT ##
#fix      NPT  all nvt temp 272 272 100 iso 1 1 1000
#restart 1000000 liqbut1.restart

#fix      NPT  all npt temp 160 160 50 iso 1 1 500
#dump myDump all atom 2000 butane_npt.lammpstrj

#run 5000000
#write_data ethanol_after_npt.data



fix 1 all nvt temp 272 272 100 # iso 1.0 1.0 1000.0
dump            DUMPxyz all xyz 1000 but1_clms_20ps.xyz
#dump            DUMP all custom 1000 mol.lammpstrj id type x y z fx fy fz mol

run 1000000
Ewald initialization ...
  using 12-bit tables for long-range coulomb (src/kspace.cpp:332)
  G vector (1/distance) = 0.18754
  estimated absolute RMS force accuracy = 0.00332589
  estimated relative force accuracy = 1.00158e-05
  KSpace vectors: actual max1d max3d = 257 5 665
                  kxmax kymax kzmax  = 5 5 5
Neighbor list info ...
  update every 1 steps, delay 0 steps, check yes
  max neighbors/atom: 2000, page size: 100000
  master list distance cutoff = 14
  ghost atom cutoff = 14
  binsize = 7, bins = 5 5 5
  1 neighbor lists, perpetual/occasional/extra = 1 0 0
  (1) pair lj/cut/coul/long, perpetual
      attributes: half, newton on
      pair build: half/bin/newton
      stencil: half/bin/3d/newton
      bin: standard
Per MPI rank memory allocation (min/avg/max) = 21.81 | 21.82 | 21.82 Mbytes
Step Time Enthalpy TotEng KinEng PotEng Temp Press Volume Density 
       0            0    2999.8485    3079.6879     1898.488    1181.1998    270.90744    -204.2472    26803.111   0.60494922 
    1000         1000    2568.8649    3176.1091    1944.0461     1232.063    277.40842   -1553.4681    26803.111   0.60494922 
    2000         2000    3763.8643    3124.3477    1900.7437     1223.604    271.22932     1636.028    26803.111   0.60494922 
    3000         3000    2836.3955    3090.1951    1916.5369    1173.6581    273.48296   -649.27675    26803.111   0.60494922 
    4000         4000    2770.4128    3025.8671     1888.577    1137.2901    269.49317   -653.50997    26803.111   0.60494922 
    5000         5000    3467.0924     3105.719    1904.2381    1201.4809    271.72795    924.47492    26803.111   0.60494922 
    6000         6000    3062.8728    3062.2865    1907.3271    1154.9594    272.16875    1.4998487    26803.111   0.60494922 
    7000         7000    3127.4471     3022.247    1885.8947    1136.3523    269.11042    269.12562    26803.111   0.60494922 
    8000         8000    3031.1172    3091.6197    1939.6713    1151.9484    276.78414   -154.77917    26803.111   0.60494922 
    9000         9000    2141.7681    3116.5249    1915.7663    1200.7586    273.37298   -2493.6482    26803.111   0.60494922 
   10000        10000    2763.1937    3031.3701    1878.8265    1152.5436    268.10181   -686.05597    26803.111   0.60494922 
   11000        11000    3182.6955    3080.9917    1912.7773    1168.2144    272.94646    260.18133    26803.111   0.60494922 
   12000        12000    2967.4104    3189.6738    1947.3868     1242.287    277.88512   -568.60001    26803.111   0.60494922 
   13000        13000    3618.6493    3072.6863    1895.7544    1176.9319    270.51736    1396.6968    26803.111   0.60494922 
   14000        14000    3105.6125    3170.1229    1965.4827    1204.6402    280.46734   -165.03231    26803.111   0.60494922 
   15000        15000    2586.8977    3120.3847     1941.607    1178.7778    277.06036   -1364.7805    26803.111   0.60494922 
   16000        16000    3220.5215    3058.0918    1879.7868    1178.3051    268.23884    415.53171    26803.111   0.60494922 
   17000        17000    3205.4229    3070.2153    1868.1482    1202.0672    266.57805    345.89136    26803.111   0.60494922 
   18000        18000     2200.215    3143.1714      1893.22    1249.9514    270.15571   -2412.2956    26803.111   0.60494922 
   19000        19000    2321.8257    3028.8637    1855.9543    1172.9094    264.83803    -1808.763    26803.111   0.60494922 
   20000        20000     3142.798    3106.8597    1923.9782    1182.8816    274.54479    91.938143    26803.111   0.60494922 
   21000        21000    2757.0932    3138.9033    1948.7306    1190.1727    278.07688   -976.75655    26803.111   0.60494922 
   22000        22000    3181.8133    3019.1359    1889.8375    1129.2985    269.67304    416.16544    26803.111   0.60494922 
   23000        23000    2947.8809    3089.8357    1865.1903    1224.6454    266.15597   -363.15227    26803.111   0.60494922 
   24000        24000    3232.5906    3225.5657    2012.2185    1213.3472    287.13638    17.971259    26803.111   0.60494922 
   25000        25000    2817.1141    3073.1027     1894.762    1178.3407    270.37576   -654.87675    26803.111   0.60494922 
   26000        26000    3115.9133    3150.0007    1949.9646    1200.0361    278.25296   -87.203216    26803.111   0.60494922 
   27000        27000    3333.1046    3135.3285    1944.3114    1191.0171    277.44628    505.95576    26803.111   0.60494922 
   28000        28000    3369.8237    3076.5369    1909.0054    1167.5315    272.40823    750.29383    26803.111   0.60494922 
   29000        29000    3300.9056    3085.7379    1933.7529    1151.9851    275.93961    550.44756    26803.111   0.60494922 
   30000        30000    3389.0737    3097.6964    1862.2349    1235.4614    265.73425    745.40907    26803.111   0.60494922 
   31000        31000    2749.5711     3126.983    1928.4727    1198.5103    275.18614   -965.50483    26803.111   0.60494922 
   32000        32000    2615.5839    3031.0809    1867.7502    1163.3307    266.52127   -1062.9352    26803.111   0.60494922 
   33000        33000    2734.7711    3119.7468    1892.3554    1227.3915    270.03233   -984.85492    26803.111   0.60494922 
   34000        34000    3062.7707    2997.0498    1858.6491    1138.4007    265.22257    168.12882    26803.111   0.60494922 
   35000        35000    3126.9612    3095.5843    1926.6515    1168.9329    274.92626    80.269057    26803.111   0.60494922 
   36000        36000    3410.1918    3120.5985    1936.9583    1183.6402      276.397     740.8452    26803.111   0.60494922 
   37000        37000    3220.6188    3071.8312    1924.6639    1147.1673    274.64264    380.63227    26803.111   0.60494922 
   38000        38000     3561.032    3115.0016    1904.9674    1210.0343    271.83202    1141.0466    26803.111   0.60494922 
   39000        39000    3142.0031    3185.3194    1997.2945    1188.0248    285.00677    -110.8129    26803.111   0.60494922 
   40000        40000    3000.4722    3040.3737     1861.363    1179.0107    265.60983   -102.07687    26803.111   0.60494922 
   41000        41000    2607.0279    3176.9006    1962.3135    1214.5872     280.0151   -1457.8631    26803.111   0.60494922 
   42000        42000    3539.4452    3087.5973     1898.063    1189.5343    270.84679    1155.9291    26803.111   0.60494922 
   43000        43000    2907.7344    3089.6591    1914.6831     1174.976    273.21842   -465.40443    26803.111   0.60494922 
   44000        44000    3201.9452    3125.1212    1894.9623    1230.1589    270.40433    196.53296    26803.111   0.60494922 
   45000        45000    2852.4867    3101.9022    1908.6102     1193.292    272.35184   -638.06123    26803.111   0.60494922 
   46000        46000    2926.2939    3036.3813    1847.3647    1189.0166    263.61233   -281.62841    26803.111   0.60494922 
   47000        47000    2869.8518     3039.983    1911.5736    1128.4094     272.7747   -435.23391    26803.111   0.60494922 
   48000        48000     2943.567    3101.6936    1917.8169    1183.8767     273.6656    -404.5234    26803.111   0.60494922 
   49000        49000    2973.6072     3050.209    1891.3214    1158.8876    269.88479   -195.96492    26803.111   0.60494922 
   50000        50000    3441.0039    3084.0336      1922.96    1161.0736     274.3995    913.21089    26803.111   0.60494922 
   51000        51000    3147.2564    3086.7196    1924.7748    1161.9447    274.65847    154.86699    26803.111   0.60494922 
   52000        52000    2934.5665    3082.5541    1916.7015    1165.8526    273.50644   -378.58575    26803.111   0.60494922 
   53000        53000    2711.2619    3092.8663    1915.1027    1177.7636     273.2783    -976.2304    26803.111   0.60494922 
   54000        54000    2821.3372    3015.4889    1840.6041    1174.8848    262.64761   -496.68378    26803.111   0.60494922 
   55000        55000    3481.6104     3146.917    1929.1135    1217.8035    275.27759    856.22136    26803.111   0.60494922 
   56000        56000    3253.6373    3109.0733    1929.2782    1179.7951    275.30109     369.8274    26803.111   0.60494922 
   57000        57000    2905.2854    3038.3834    1849.1411    1189.2423    263.86581   -340.49487    26803.111   0.60494922 
   58000        58000      3106.55    3098.8347    1918.0812    1180.7535    273.70331    19.737624    26803.111   0.60494922 
   59000        59000     3565.798    3115.5606    1931.0106      1184.55    275.54829     1151.809    26803.111   0.60494922 
   60000        60000    2589.1447    3064.8103    1882.7143     1182.096    268.65658   -1216.8602    26803.111   0.60494922 
   61000        61000    2981.4857    3150.0879    1930.4182    1219.6698    275.46376   -431.32262    26803.111   0.60494922 
   62000        62000    2257.7341     3148.363    1910.5147    1237.8482    272.62361   -2278.4301    26803.111   0.60494922 
   63000        63000    2781.1904    3077.7475    1912.1047    1165.6428    272.85048   -758.66011    26803.111   0.60494922 
   64000        64000    3249.5991     3060.427    1842.4024    1218.0247    262.90421    483.94499    26803.111   0.60494922 
   65000        65000    3385.5174    3126.7478    1897.8401    1228.9077    270.81499    661.99103    26803.111   0.60494922 
   66000        66000    2976.6584    3063.5648    1896.7716    1166.7932    270.66252   -222.32636    26803.111   0.60494922 
   67000        67000    2911.6194    3118.0858    1902.5923    1215.4935     271.4931   -528.18774    26803.111   0.60494922 
   68000        68000    3804.2294    3142.4168    1954.7278     1187.689    278.93265    1693.0663    26803.111   0.60494922 
   69000        69000    3332.0338    3104.0534    1931.0073    1173.0461    275.54782    583.22539    26803.111   0.60494922 
   70000        70000    2473.3012    3005.6574    1879.3944    1126.2629    268.18285   -1361.8874    26803.111   0.60494922 
   71000        71000    2610.1673    3129.9738    1898.9265    1231.0472    270.97001   -1329.7825    26803.111   0.60494922 
   72000        72000    2845.5372     3198.749    1967.3623    1231.3866    280.73556   -903.59545    26803.111   0.60494922 
   73000        73000     2630.062     3059.606    1927.5362    1132.0698    275.05251   -1098.8704    26803.111   0.60494922 
   74000        74000    3100.6183    3157.0211    1940.4374    1216.5837    276.89346   -144.29111    26803.111   0.60494922 
   75000        75000     2942.604    3092.8129     1932.181     1160.632     275.7153   -384.26849    26803.111   0.60494922 
   76000        76000    2624.6771    3025.0258    1854.8408     1170.185    264.67913   -1024.1825    26803.111   0.60494922 
   77000        77000    2548.3955    3078.5648    1918.9502    1159.6146    273.82732   -1356.2929    26803.111   0.60494922 
   78000        78000    3185.6441    3159.6647    1954.5936    1205.0711     278.9135    66.461313    26803.111   0.60494922 
   79000        79000    2963.5454    3098.5712    1932.7557    1165.8156    275.79731   -345.42652    26803.111   0.60494922 
   80000        80000    3356.0305    3097.5444    1892.8267    1204.7177    270.09958     661.2659    26803.111   0.60494922 
   81000        81000     2833.268    3095.7935    1889.4031    1206.3904    269.61105   -671.59958    26803.111   0.60494922 
   82000        82000    2636.3898    3152.8355    1888.6386    1264.1969    269.50197   -1321.1848    26803.111   0.60494922 
   83000        83000    3383.2328     3093.904    1878.3632    1215.5408     268.0357     740.1685    26803.111   0.60494922 
   84000        84000    2979.3247     3059.357    1883.5342    1175.8228    268.77358   -204.74075    26803.111   0.60494922 
   85000        85000    3251.6116    3152.4728    1927.1727    1225.3001    275.00065     253.6195    26803.111   0.60494922 
   86000        86000    2711.0908    3137.8451    1896.1407    1241.7044    270.57249   -1091.7339    26803.111   0.60494922 
   87000        87000    2880.4129    3074.7423    1881.2965    1193.4458    268.45427   -497.13851    26803.111   0.60494922 
   88000        88000    2884.6751    3042.7526    1892.8077     1149.945    270.09687   -404.39811    26803.111   0.60494922 
   89000        89000    2821.7187    3032.6025    1881.9777    1150.6247    268.55148   -539.48841    26803.111   0.60494922 
   90000        90000    3196.5151    3101.9997    1929.0269    1172.9728    275.26523    241.79188    26803.111   0.60494922 
   91000        91000    3471.6228    3118.8753    1911.7319    1207.1434    272.79729     902.4078    26803.111   0.60494922 
   92000        92000    3373.1336    3154.5269    1954.9256    1199.6013    278.96088    559.24536    26803.111   0.60494922 
   93000        93000    3055.8292     3110.022    1907.4151     1202.607     272.1813   -138.63755    26803.111   0.60494922 
   94000        94000    2955.9005    3027.4162    1879.6018    1147.8144    268.21244   -182.95322    26803.111   0.60494922 
   95000        95000    3479.5153    3117.2586    1903.6031    1213.6555    271.63735     926.7345    26803.111   0.60494922 
   96000        96000    2609.1477    3118.0191    1876.0583    1241.9608     267.7068   -1301.8081    26803.111   0.60494922 
   97000        97000    2602.1332    3116.9305    1917.8113    1199.1191    273.66481   -1316.9678    26803.111   0.60494922 
   98000        98000    2729.1953    3005.3465    1840.9823    1164.3642    262.70158    -706.4573    26803.111   0.60494922 
   99000        99000    3435.3494      3130.67    1933.2308    1197.4392    275.86511    779.43879    26803.111   0.60494922 
  100000       100000    2720.1475      3153.54    1913.9263    1239.6137    273.11043   -1108.7159    26803.111   0.60494922 
  101000       101000    3450.1396    3083.0539    1905.2306    1177.8233    271.86958    939.08822    26803.111   0.60494922 
  102000       102000    3044.9134    3083.9946    1942.5849    1141.4098     277.1999   -99.978457    26803.111   0.60494922 
  103000       103000     3536.946    3191.5096    1965.6803    1225.8293    280.49553    883.70445    26803.111   0.60494922 
  104000       104000    3476.3913    3127.6184    1956.1861    1171.4323    279.14075    892.23976    26803.111   0.60494922 
  105000       105000    3085.6498    3127.2885    1905.8863    1221.4021    271.96315   -106.52101    26803.111   0.60494922 
  106000       106000    2751.2874    3138.4224    1915.6653    1222.7571    273.35858   -990.37876    26803.111   0.60494922 
  107000       107000    2568.9655    3157.4168    1909.3015    1248.1153    272.45048   -1505.3915    26803.111   0.60494922 
  108000       108000    2739.7942    3064.6488     1861.346    1203.3028     265.6074   -831.05162    26803.111   0.60494922 
  109000       109000    3185.3002    3202.5808    1961.7146    1240.8662    279.92965   -44.207607    26803.111   0.60494922 
  110000       110000    2972.7128    3056.5817     1901.236    1155.3457    271.29957   -214.55551    26803.111   0.60494922 
  111000       111000    2857.2418    3045.2454    1860.4127    1184.8327    265.47422   -480.95569    26803.111   0.60494922 
  112000       112000    2869.7636    3102.2471    1918.1337    1184.1134    273.71081   -594.74534    26803.111   0.60494922 
  113000       113000    3242.4273    3081.0183    1875.9437    1205.0746    267.69045    412.92065    26803.111   0.60494922 
  114000       114000    3253.3493    3037.8294    1842.0764     1195.753     262.8577    551.34843    26803.111   0.60494922 
  115000       115000    3299.6711    3047.5568    1891.9413    1155.6155    269.97324    644.96537    26803.111   0.60494922 
  116000       116000    2806.6729    3082.6189    1937.8129     1144.806    276.51896   -705.93225    26803.111   0.60494922 
  117000       117000    3564.3089    3171.9235    1925.1075     1246.816    274.70594    1003.8106    26803.111   0.60494922 
  118000       118000    3229.9334    3083.3699     1869.639    1213.7309    266.79079    374.94242    26803.111   0.60494922 
  119000       119000    3589.2191    3027.8781    1876.0101    1151.8681    267.69991    1436.0372    26803.111   0.60494922 
  120000       120000    3489.8322    3119.8294     1926.985    1192.8444    274.97385    946.55088    26803.111   0.60494922 
  121000       121000    2863.4246    3089.3359    1910.1281    1179.2078    272.56843   -577.93221    26803.111   0.60494922 
  122000       122000    3104.1736    3169.7668    1944.0217    1225.7451    277.40493   -167.80225    26803.111   0.60494922 
  123000       123000     2649.008    3123.2982    1921.4192     1201.879    274.17964   -1213.3415    26803.111   0.60494922 
  124000       124000    2730.0658     3060.981    1854.6981     1206.283    264.65877   -846.55595    26803.111   0.60494922 
  125000       125000     2759.417    3092.4126    1910.6284    1181.7841    272.63983   -851.87795    26803.111   0.60494922 
  126000       126000    3001.4766    3070.6979    1886.0982    1184.5997    269.13946    -177.0838    26803.111   0.60494922 
  127000       127000    3317.6999    3079.5399    1898.4036    1181.1363    270.89539    609.26697    26803.111   0.60494922 
  128000       128000    2568.9111    3080.6733    1891.6064    1189.0669    269.92546   -1309.2033    26803.111   0.60494922 
  129000       129000     3407.268    3138.2155    1918.1154       1220.1     273.7082    688.29722    26803.111   0.60494922 
  130000       130000     3638.208    3028.1627    1866.3382    1161.8245    266.31978    1560.6337    26803.111   0.60494922 
  131000       131000     3380.126    3095.7808    1942.1902    1153.5905    277.14359    727.41927    26803.111   0.60494922 
  132000       132000    3863.7937    3076.3166    1910.7317    1165.5849    272.65457    2014.5445    26803.111   0.60494922 
  133000       133000    3613.2256    3173.4716    1968.7629    1204.7087    280.93541      1124.99    26803.111   0.60494922 
  134000       134000    2831.6262     3075.973    1899.3939    1176.5791    271.03671   -625.09416    26803.111   0.60494922 
  135000       135000    3189.2869    3118.1609    1925.2455    1192.9154    274.72564    181.95645    26803.111   0.60494922 
  136000       136000     3277.561    3102.6437    1927.0761    1175.5676    274.98686    447.47805    26803.111   0.60494922 
  137000       137000    3370.1438    3046.3272    1855.5213    1190.8059    264.77624    828.39589    26803.111   0.60494922 
  138000       138000     3463.708    3067.5151    1937.0804    1130.4347    276.41443     1013.551    26803.111   0.60494922 
  139000       139000    3118.2876    3093.6035     1897.795    1195.8085    270.80855    63.147471    26803.111   0.60494922 
  140000       140000    2958.6866    3026.1073    1876.9797    1149.1276    267.83827    -172.4772    26803.111   0.60494922 
  141000       141000    3066.6716    3126.5262     1910.725    1215.8013    272.65361    -153.1216    26803.111   0.60494922 
  142000       142000    2993.5631    3083.8756    1903.6462    1180.2294    271.64349   -231.03972    26803.111   0.60494922 
  143000       143000      2588.65    3080.3117    1898.2346    1182.0771    270.87127   -1257.7816    26803.111   0.60494922 
  144000       144000    3008.2459    3164.0481    1907.5004    1256.5477    272.19347   -398.57708    26803.111   0.60494922 
  145000       145000    3264.8094      3096.66    1885.5972    1211.0627    269.06797    430.16426    26803.111   0.60494922 
  146000       146000    3396.3861    3109.5087    1865.2179    1244.2908    266.15991    733.89717    26803.111   0.60494922 
  147000       147000    3554.0827     3157.275    1947.2762    1209.9988    277.86934    1015.1236    26803.111   0.60494922 
  148000       148000    2827.4831    3087.8173    1905.1944     1182.623    271.86441   -665.99391    26803.111   0.60494922 
  149000       149000    4057.9836    3071.9556    1892.8867    1179.0689    270.10815    2522.4824    26803.111   0.60494922 
  150000       150000    3361.3471     3073.233    1939.9496    1133.2834    276.82386    737.06097    26803.111   0.60494922 
  151000       151000    2850.0473    3044.2206    1841.7923    1202.4283    262.81717   -496.73932    26803.111   0.60494922 
  152000       152000    2499.5243     3189.402    1995.3337    1194.0683    284.72698   -1764.8631    26803.111   0.60494922 
  153000       153000     2990.138    3039.2244    1863.8437    1175.3807    265.96382   -125.57429    26803.111   0.60494922 
  154000       154000    3405.4649    3145.3759    1915.3178     1230.058    273.30899    665.36653    26803.111   0.60494922 
  155000       155000    3096.9032    3096.0148    1921.2484    1174.7664    274.15526    2.2728463    26803.111   0.60494922 
  156000       156000    2788.0658    3100.8325    1944.6267    1156.2058    277.49126   -800.12785    26803.111   0.60494922 
  157000       157000    2312.7685    3044.2511    1884.1839    1160.0672    268.86629   -1871.2978    26803.111   0.60494922 
  158000       158000    3525.6998    3083.0523    1852.3111    1230.7412    264.31816    1132.3922    26803.111   0.60494922 
  159000       159000    2795.6869    3056.8982    1848.6909    1208.2073    263.80157   -668.23756    26803.111   0.60494922 
  160000       160000    3312.2726    3048.2636    1874.8484    1173.4152    267.53415    675.39476    26803.111   0.60494922 
  161000       161000    2915.4723    3116.2012    1923.8367    1192.3645     274.5246   -513.50999    26803.111   0.60494922 
  162000       162000    2574.5223      2988.71     1828.698     1160.012    260.94865   -1059.5857    26803.111   0.60494922 
  163000       163000    3010.3241     3073.379    1881.0182    1192.3608    268.41455   -161.30868    26803.111   0.60494922 
  164000       164000    3056.5197    3112.0444    1916.4185    1195.6259    273.46605   -142.04465    26803.111   0.60494922 
  165000       165000    2886.1215    3030.1178    1900.1999    1129.9179    271.15172   -368.37511    26803.111   0.60494922 
  166000       166000      3082.57    3184.2496    2022.1143    1162.1353    288.54847   -260.11926    26803.111   0.60494922 
  167000       167000     2551.138    3076.3887    1882.1638    1194.2249    268.57803   -1343.7101    26803.111   0.60494922 
  168000       168000    3488.4545    3094.6807    1868.4523    1226.2284    266.62145    1007.3624    26803.111   0.60494922 
  169000       169000    3637.2407    3157.5222    1970.0969    1187.4253    281.12577    1227.2283    26803.111   0.60494922 
  170000       170000    3192.1156    3052.3723    1878.2631    1174.1092    268.02142    357.49493    26803.111   0.60494922 
  171000       171000    3373.9268    3124.7724    1930.6661    1194.1062    275.49914    637.39335    26803.111   0.60494922 
  172000       172000    3470.9123    2998.4329    1863.3625    1135.0705    265.89515     1208.709    26803.111   0.60494922 
  173000       173000    3150.7882    3040.5779    1906.3414    1134.2366    272.02808    281.94283    26803.111   0.60494922 
  174000       174000    2979.4897    3140.3101    1929.3275    1210.9826    275.30812   -411.41484    26803.111   0.60494922 
  175000       175000    3219.8258    3017.8041    1846.5845    1171.2196    263.50099    516.81722    26803.111   0.60494922 
  176000       176000    3269.1764    3142.2961    1922.2833    1220.0128    274.30294    324.58853    26803.111   0.60494922 
  177000       177000      3534.05    3059.8384    1919.6586    1140.1799     273.9284    1213.1404    26803.111   0.60494922 
  178000       178000    3695.4665    3129.4401    1894.8303    1234.6098    270.38549    1448.0236    26803.111   0.60494922 
  179000       179000    3578.2235    3052.7337    1866.3616    1186.3721    266.32311    1344.3218    26803.111   0.60494922 
  180000       180000    3251.2413    3163.8631    1979.8816    1183.9816    282.52201    223.53306    26803.111   0.60494922 
  181000       181000    2701.6776     3078.786    1935.8231     1142.963    276.23501   -964.72854    26803.111   0.60494922 
  182000       182000    3212.1252    3072.0875    1896.6966    1175.3909     270.6518    358.24804    26803.111   0.60494922 
  183000       183000    3617.6018    3015.8055    1859.5961    1156.2094    265.35769    1539.5311    26803.111   0.60494922 
  184000       184000    3684.9011    3087.4091    1959.0201    1128.3889    279.54515    1528.5197    26803.111   0.60494922 
  185000       185000    2905.7218    3068.6658    1909.4092    1159.2566    272.46586   -416.84768    26803.111   0.60494922 
  186000       186000    3146.6731     3087.033    1897.1251    1189.9079    270.71296     152.5728    26803.111   0.60494922 
  187000       187000    3207.5035    3123.0802    1915.4023     1207.678    273.32104    215.97387    26803.111   0.60494922 
  188000       188000    2793.8075    3154.3124    1889.3084     1265.004    269.59754   -922.25319    26803.111   0.60494922 
  189000       189000    3090.2653    3036.4345    1866.3566     1170.078     266.3224    137.71117    26803.111   0.60494922 
  190000       190000     3129.183    3115.6169    1922.9924    1192.6245    274.40412    34.705238    26803.111   0.60494922 
  191000       191000    2960.7976    3075.7751    1912.5325    1163.2425    272.91154   -294.13826    26803.111   0.60494922 
  192000       192000     2614.446     3015.725    1848.7052    1167.0198    263.80361   -1026.5624    26803.111   0.60494922 
  193000       193000    2842.9305    3039.7361      1897.94    1141.7962    270.82923   -503.47328    26803.111   0.60494922 
  194000       194000    2962.1727     3098.892    1919.4232    1179.4688    273.89481   -349.75881    26803.111   0.60494922 
  195000       195000    2559.6737    3094.8443    1893.4694     1201.375    270.19129   -1369.0874    26803.111   0.60494922 
  196000       196000    3445.9406    3140.7726    1913.3914    1227.3812     273.0341    780.68859    26803.111   0.60494922 
  197000       197000    2703.5971    3069.3583    1889.0451    1180.3132    269.55997   -935.69985    26803.111   0.60494922 
  198000       198000    2699.8012    2991.5791    1862.6574    1128.9218    265.79453   -746.43394    26803.111   0.60494922 
  199000       199000    2589.1691    3139.3685     1916.065    1223.3035    273.41561   -1407.5345    26803.111   0.60494922 
  200000       200000    3409.4584    3101.2809    1877.5612    1223.7196    267.92126    788.38789    26803.111   0.60494922 
  201000       201000    3686.9971    3050.7715    1885.2335     1165.538    269.01607    1627.6088    26803.111   0.60494922 
  202000       202000    3364.9219    3062.7519    1880.7551    1181.9968    268.37702    773.01913    26803.111   0.60494922 
  203000       203000    3892.4066    3070.1524    1930.7534     1139.399    275.51159    2103.5121    26803.111   0.60494922 
  204000       204000    3104.9353      2998.77    1832.8236    1165.9464    261.53736    271.59496    26803.111   0.60494922 
  205000       205000     3643.212    3102.6024    1895.6155    1206.9869    270.49754    1383.0017    26803.111   0.60494922 
  206000       206000    2681.0927    3060.0406    1886.3887    1173.6519    269.18091   -969.43419    26803.111   0.60494922 
  207000       207000    3047.1361    3049.5309    1907.5227    1142.0082    272.19665   -6.1263255    26803.111   0.60494922 
  208000       208000    2439.9085    3035.7912    1891.7736    1144.0176    269.94931   -1524.4027    26803.111   0.60494922 
  209000       209000    3757.4516    3137.0281    1940.6297    1196.3984    276.92091    1587.1834    26803.111   0.60494922 
  210000       210000    3231.3204    3127.5718     1884.933    1242.6389    268.97318    265.41235    26803.111   0.60494922 
  211000       211000    2746.9715    3052.9055    1857.8695    1195.0361    265.11132   -782.64846    26803.111   0.60494922 
  212000       212000    2616.9181    3070.4396    1904.6041    1165.8355    271.78018   -1160.2107    26803.111   0.60494922 
  213000       213000    2667.5649    3134.5913    1888.7142    1245.8771    269.51275   -1194.7591    26803.111   0.60494922 
  214000       214000    3110.3402    3025.3317    1889.3734    1135.9583    269.60681    217.47101    26803.111   0.60494922 
  215000       215000    3462.5538    3111.4171    1907.7155    1203.7016    272.22417      898.287    26803.111   0.60494922 
  216000       216000    3427.7284    3049.3318    1858.3619    1190.9698    265.18159    968.02422    26803.111   0.60494922 
  217000       217000    3323.3788    3030.2007    1901.3566    1128.8441    271.31677    750.01572    26803.111   0.60494922 
  218000       218000    2428.5333    3045.8069     1875.945    1169.8619    267.69063   -1579.1254    26803.111   0.60494922 
  219000       219000    3003.6302     3130.082    1917.2614    1212.8206    273.58633   -323.49233    26803.111   0.60494922 
  220000       220000    2317.1524    3146.5911    1939.1682    1207.4229    276.71236   -2121.8918    26803.111   0.60494922 
  221000       221000     3207.286       3088.5    1917.0933    1171.4067    273.56235    303.88138    26803.111   0.60494922 
  222000       222000     2978.234    3134.8582    1946.7034    1188.1548     277.7876   -400.68005    26803.111   0.60494922 
  223000       223000    2796.1083    3090.2018    1930.4506    1159.7513    275.46838   -752.35783    26803.111   0.60494922 
  224000       224000     2726.682    3072.4009    1895.8662    1176.5347    270.53332   -884.42718    26803.111   0.60494922 
  225000       225000    3139.1151    3077.7257    1907.3282    1170.3976     272.1689    157.04783    26803.111   0.60494922 
  226000       226000    3206.4674    3084.0586    1860.6249    1223.4338     265.5045    313.14916    26803.111   0.60494922 
  227000       227000    2898.3289    3105.5143     1885.321    1220.1933    269.02855   -530.02718    26803.111   0.60494922 
  228000       228000    2385.5708    3060.1039     1880.636    1179.4679    268.36002   -1725.6081    26803.111   0.60494922 
  229000       229000    3913.1265    3154.9245    1932.5666    1222.3578    275.77033    1939.6521    26803.111   0.60494922 
  230000       230000     3368.336    3099.1326    1899.0172    1200.1154    270.98295    688.68313    26803.111   0.60494922 
  231000       231000    3132.7733    3082.0247    1866.4602    1215.5645    266.33719    129.82642    26803.111   0.60494922 
  232000       232000     2602.536    3093.7729    1921.9019     1171.871    274.24852    -1256.695    26803.111   0.60494922 
  233000       233000    3152.2335    3076.2406     1928.459    1147.7816    275.18419    194.40694    26803.111   0.60494922 
  234000       234000    2892.1957     3059.961    1881.5657    1178.3953    268.49269   -429.18149    26803.111   0.60494922 
  235000       235000    2617.1655    3095.3512    1912.9856    1182.3657    272.97619   -1223.3071    26803.111   0.60494922 
  236000       236000    3408.4352    3087.8036     1886.599    1201.2046    269.21092    820.24816    26803.111   0.60494922 
  237000       237000    2579.8126    3127.3985    1907.6342    1219.7642    272.21257   -1400.8484    26803.111   0.60494922 
  238000       238000    3217.8823    3031.2768    1887.0731    1144.2037    269.27857    477.37918    26803.111   0.60494922 
  239000       239000    2501.9438    2960.7179    1837.3165    1123.4014    262.17848    -1173.648    26803.111   0.60494922 
  240000       240000     3403.885    3081.5508    1904.1043    1177.4465    271.70886    824.60392    26803.111   0.60494922 
  241000       241000      3072.02     3066.717    1908.8639    1157.8531    272.38804    13.566235    26803.111   0.60494922 
  242000       242000    3181.9467    3165.4151     1943.513    1221.9021    277.33234    42.291623    26803.111   0.60494922 
  243000       243000    2833.1553    3056.8998     1882.961    1173.9388    268.69179   -572.38891    26803.111   0.60494922 
  244000       244000    3379.3016    3090.0443    1920.0385    1170.0059    273.98261    739.98559    26803.111   0.60494922 
  245000       245000    3768.6136    3019.4934    1865.4026    1154.0908    266.18626    1916.4188    26803.111   0.60494922 
  246000       246000     3144.686    3051.2835    1869.3323    1181.9513    266.74702    238.94453    26803.111   0.60494922 
  247000       247000     3051.064    3115.4826    1913.4426    1202.0401     273.0414   -164.79735    26803.111   0.60494922 
  248000       248000    3296.6824    3195.1756    1949.4855    1245.6901    278.18459    259.67743    26803.111   0.60494922 
  249000       249000    3844.1581    3062.7521    1898.1564    1164.5957    270.86011    1999.0133    26803.111   0.60494922 
  250000       250000    3485.0954    2998.2957    1840.1916    1158.1041    262.58875    1245.3437    26803.111   0.60494922 
  251000       251000    2902.1496    3057.9796    1926.2895    1131.6901    274.87461   -398.64832    26803.111   0.60494922 
  252000       252000    3237.0793    3023.9133    1866.8253    1157.0881    266.38928    545.32662    26803.111   0.60494922 
  253000       253000    3411.9747    3113.5381     1920.225    1193.3131    274.00923    763.46821    26803.111   0.60494922 
  254000       254000    2738.6256    3054.4918    1922.8174    1131.6743    274.37916   -808.05711    26803.111   0.60494922 
  255000       255000    2675.7256    3129.9088    1880.5385    1249.3703     268.3461   -1161.9032    26803.111   0.60494922 
  256000       256000    2756.4304    3090.4528    1943.4306    1147.0223    277.32058   -854.50484    26803.111   0.60494922 
  257000       257000    2804.6764    3154.5767    1943.2258    1211.3509    277.29136   -895.12388    26803.111   0.60494922 
  258000       258000    2983.9414    3117.4516    1905.1075    1212.3441    271.85201   -341.54922    26803.111   0.60494922 
  259000       259000    3492.3161    3034.3278    1835.3986    1198.9292     261.9048    1171.6374    26803.111   0.60494922 
  260000       260000       3236.7    3075.9704    1909.4981    1166.4723    272.47854     411.1827    26803.111   0.60494922 
  261000       261000    3259.2426    3110.2496    1914.4526     1195.797    273.18553    381.15779    26803.111   0.60494922 
  262000       262000    2986.0767    3038.0691    1870.8711     1167.198     266.9666   -133.00837    26803.111   0.60494922 
  263000       263000    3748.3906    3109.5321     1950.542    1158.9901    278.33536    1634.3444    26803.111   0.60494922 
  264000       264000    2856.7362    3138.3948    1939.0999    1199.2948    276.70261   -720.54633    26803.111   0.60494922 
  265000       265000    2908.3048     3054.258    1896.3412    1157.9168    270.60109   -373.38142    26803.111   0.60494922 
  266000       266000    3629.0691    2995.7602    1853.6611    1142.0991     264.5108    1620.1473    26803.111   0.60494922 
  267000       267000    3339.5446    3094.7163    1924.1145    1170.6018    274.56425    626.32592    26803.111   0.60494922 
  268000       268000    2775.0633    3042.1595    1931.7938    1110.3657    275.66005   -683.29255    26803.111   0.60494922 
  269000       269000    3021.7799    3021.3569     1841.845    1179.5119    262.82468     1.082102    26803.111   0.60494922 
  270000       270000    3671.7841    3114.0202    1940.0182     1174.002    276.83364    1426.8862    26803.111   0.60494922 
  271000       271000    3274.6929    3074.2992    1876.3481    1197.9511    267.74815    512.65232    26803.111   0.60494922 
  272000       272000    3460.7741    3117.3438    1929.3137      1188.03    275.30616    878.57246    26803.111   0.60494922 
  273000       273000    3194.0926    3024.7609    1873.4364    1151.3245    267.33266    433.18884    26803.111   0.60494922 
  274000       274000    3283.9865    3071.8589    1876.5207    1195.3382    267.77278    542.67021    26803.111   0.60494922 
  275000       275000    3426.7029    3146.9136    1955.8938    1191.0198    279.09904    715.76435    26803.111   0.60494922 
  276000       276000    3318.7857    3101.1154    1915.8577    1185.2578    273.38603    556.84976    26803.111   0.60494922 
  277000       277000    2547.8298    3055.1179    1867.8028    1187.3151    266.52876   -1297.7575    26803.111   0.60494922 
  278000       278000    3554.4289    3105.4078     1892.043    1213.3648    269.98776    1148.6974    26803.111   0.60494922 
  279000       279000    3376.3121    3140.7601    1930.8433    1209.9168    275.52442    602.59508    26803.111   0.60494922 
  280000       280000    3153.2451    3086.6846    1902.8247    1183.8599    271.52627    170.27683    26803.111   0.60494922 
  281000       281000    3545.9594    3060.6786    1879.2757    1181.4029    268.16592    1241.4577    26803.111   0.60494922 
  282000       282000     3432.367    3011.9897    1903.6527     1108.337    271.64442      1075.42    26803.111   0.60494922 
  283000       283000    3138.4153    3091.4289    1906.7601    1184.6688    272.08783    120.20187    26803.111   0.60494922 
  284000       284000    2970.4446    3052.2167    1870.9157     1181.301    266.97296   -209.19143    26803.111   0.60494922 
  285000       285000    3586.2248    3067.7111    1895.6706    1172.0405     270.5054    1326.4754    26803.111   0.60494922 
  286000       286000    3176.2059    3048.0589    1904.0797    1143.9792    271.70535    327.82901    26803.111   0.60494922 
  287000       287000    2896.6617     3028.686    1870.6028    1158.0832    266.92832   -337.74801    26803.111   0.60494922 
  288000       288000    3267.5726    3165.0111      1943.49    1221.5211    277.32906     262.3755    26803.111   0.60494922 
  289000       289000    2861.9919    3124.3764    1963.2149    1161.1615    280.14373    -671.2389    26803.111   0.60494922 
  290000       290000    3846.3478    3140.9895    1953.4873    1187.5022    278.75564    1804.4659    26803.111   0.60494922 
  291000       291000    3397.3681    3137.0395    1937.4308    1199.6088    276.46443    665.97936    26803.111   0.60494922 
  292000       292000    2871.8989    3079.4862    1946.6871    1132.7991    277.78527   -531.05535    26803.111   0.60494922 
  293000       293000    2987.3795    3085.5017    1895.2764    1190.2253    270.44915   -251.01881    26803.111   0.60494922 
  294000       294000    2570.1754     3050.093    1882.2239    1167.8691    268.58661   -1227.7378    26803.111   0.60494922 
  295000       295000    3545.5652    3193.2643    1962.1551    1231.1092     279.9925    901.26534    26803.111   0.60494922 
  296000       296000    2616.8615    3089.2251    1906.1396    1183.0855    271.99929   -1208.4129    26803.111   0.60494922 
  297000       297000    3161.4323    3032.2351    1929.4767    1102.7584    275.32941    330.51554    26803.111   0.60494922 
  298000       298000    3000.3083    3100.6221    1927.0791     1173.543    274.98728   -256.62535    26803.111   0.60494922 
  299000       299000    3784.1197    3166.3963    1939.2326    1227.1637    276.72154    1580.2761    26803.111   0.60494922 
  300000       300000     3422.469    3136.0435    1985.1651    1150.8784    283.27595     732.7412    26803.111   0.60494922 
  301000       301000     2661.022    3041.4937    1868.5546    1172.9391    266.63605   -973.33249    26803.111   0.60494922 
  302000       302000    3317.3201    3116.2704    1984.3696    1131.9009    283.16243    514.33042    26803.111   0.60494922 
  303000       303000    3227.7339    3120.0654    1924.2296    1195.8358    274.58068    275.44024    26803.111   0.60494922 
  304000       304000    2643.0183     3081.799    1883.6534    1198.1456    268.79059   -1122.5002    26803.111   0.60494922 
  305000       305000     3085.583    3150.0888    1931.6995    1218.3892     275.6466   -165.02022    26803.111   0.60494922 
  306000       306000    2910.0414    3027.4891     1844.364    1183.1252    263.18413   -300.45782    26803.111   0.60494922 
  307000       307000    3247.1975    3107.0674    1951.8989    1155.1685    278.52897    358.48443    26803.111   0.60494922 
  308000       308000    3156.7786    3073.9776    1873.6283    1200.3493    267.36005    211.82375    26803.111   0.60494922 
  309000       309000    3020.5565    3026.2796    1876.9313    1149.3483    267.83137   -14.641213    26803.111   0.60494922 
  310000       310000    2953.8974    3108.6119    1901.3928    1207.2191    271.32195   -395.79467    26803.111   0.60494922 
  311000       311000    2617.6229    3203.7955    1954.3497    1249.4458    278.87871   -1499.5621    26803.111   0.60494922 
  312000       312000    3169.1893    3084.3769    1872.4795    1211.8974    267.19611    216.96942    26803.111   0.60494922 
  313000       313000    3047.5999    3007.1068    1861.9456    1145.1612    265.69297    103.59046    26803.111   0.60494922 
  314000       314000    3587.8431    3101.6113    1952.9298    1148.6816    278.67608    1243.8908    26803.111   0.60494922 
  315000       315000    3333.3619    3032.0434    1870.1966    1161.8468    266.87035    770.84085    26803.111   0.60494922 
  316000       316000    2937.2764    3118.7532    1920.3273    1198.4259    274.02383   -464.25873    26803.111   0.60494922 
  317000       317000    3702.7481    3100.7954    1960.3393    1140.4562    279.73339     1539.931    26803.111   0.60494922 
  318000       318000    4094.1205    3154.6529    1945.1125    1209.5405    277.56058    2403.3703    26803.111   0.60494922 
  319000       319000    3615.4105    3076.3233     1915.477    1160.8463    273.33171    1379.1071    26803.111   0.60494922 
  320000       320000    2740.6245    3055.8909    1916.8075    1139.0834    273.52156   -806.52259    26803.111   0.60494922 
  321000       321000    2922.4985     3119.214    1926.3283    1192.8856    274.88015   -503.24253    26803.111   0.60494922 
  322000       322000    3278.4385    3053.8858    1839.3316    1214.5542    262.46603    574.45648    26803.111   0.60494922 
  323000       323000    2845.1309    3127.1431    1930.3921     1196.751    275.46004   -721.45091    26803.111   0.60494922 
  324000       324000    3131.1659    3092.9529    1963.6088    1129.3441    280.19994    97.757627    26803.111   0.60494922 
  325000       325000    3392.5082    3137.7012    1936.6139    1201.0872    276.34787    651.85401    26803.111   0.60494922 
  326000       326000     2813.425    3104.8304    1906.6098    1198.2206    272.06639   -745.48091    26803.111   0.60494922 
  327000       327000    3684.1773    3109.5223    1936.9328    1172.5895    276.39337    1470.0974    26803.111   0.60494922 
  328000       328000    2833.4635    3092.3894    1909.0336    1183.3558    272.41225   -662.39092    26803.111   0.60494922 
  329000       329000    3315.6419    3096.2396    1877.8025    1218.4371    267.95569    561.28066    26803.111   0.60494922 
  330000       330000    3394.2192     3077.561     1906.937     1170.624    272.11308    810.08325    26803.111   0.60494922 
  331000       331000    2555.5032      3061.25    1864.0488    1197.2012    265.99309   -1293.8146    26803.111   0.60494922 
  332000       332000    3073.6399    3015.0299    1828.7381    1186.2918    260.95438    149.93753    26803.111   0.60494922 
  333000       333000    3219.9533    3102.8843      1879.67    1223.2143    268.22218    299.48882    26803.111   0.60494922 
  334000       334000    3033.3415    3112.4282    1944.1026    1168.3256    277.41648   -202.32177    26803.111   0.60494922 
  335000       335000    2908.6974    3051.9042    1871.6095    1180.2948    267.07197   -366.35556    26803.111   0.60494922 
  336000       336000    2667.7281    2989.0405    1872.6635     1116.377    267.22238   -821.98985    26803.111   0.60494922 
  337000       337000    2650.1501    3142.5281     1911.426     1231.102    272.75365   -1259.6142    26803.111   0.60494922 
  338000       338000    3179.1239    3034.7855    1845.3803    1189.4052    263.32916    369.25032    26803.111   0.60494922 
  339000       339000      2781.16    3102.0685    1885.2461    1216.8224    269.01786   -820.95648    26803.111   0.60494922 
  340000       340000    3018.5321    3082.9716    1898.1539    1184.8177    270.85976   -164.85079    26803.111   0.60494922 
  341000       341000    3198.6172    3036.7238     1899.897    1136.8268     271.1085     414.1598    26803.111   0.60494922 
  342000       342000    3142.6657    3112.7693    1943.4942    1169.2751    277.32966    76.481836    26803.111   0.60494922 
  343000       343000    3276.9859    3101.2897    1911.6822    1189.6075     272.7902    449.47053    26803.111   0.60494922 
  344000       344000     3067.985    3047.4573     1845.463    1201.9943    263.34096    52.514477    26803.111   0.60494922 
  345000       345000    2547.6586    3101.4358    1887.4684    1213.9674    269.33498   -1416.6873    26803.111   0.60494922 
  346000       346000    3408.6768    3123.8928    1930.6104    1193.2824    275.49119    728.54164    26803.111   0.60494922 
  347000       347000    2740.9505    3106.0898    1932.9919    1173.0979    275.83101    -934.1088    26803.111   0.60494922 
  348000       348000    2711.4526    3064.5531    1878.6474    1185.9057    268.07625   -903.31089    26803.111   0.60494922 
  349000       349000    3766.0543    3150.7132    1921.1764    1229.5369    274.14498    1574.1816    26803.111   0.60494922 
  350000       350000     2896.753    3151.1412    1924.6142     1226.527    274.63556   -650.78257    26803.111   0.60494922 
  351000       351000    3171.1411    3066.3305    1842.3639    1223.9667    262.89873    268.12914    26803.111   0.60494922 
  352000       352000     2761.319    3012.0946    1841.0249    1171.0697    262.70766   -641.54073    26803.111   0.60494922 
  353000       353000    2607.9946    3081.0242    1908.9532     1172.071    272.40078   -1210.1166    26803.111   0.60494922 
  354000       354000    3225.9433    3090.2128    1885.5808    1204.6319    269.06563    347.22948    26803.111   0.60494922 
  355000       355000    3550.8959    3114.4647    1954.0905    1160.3742    278.84171    1116.4896    26803.111   0.60494922 
  356000       356000    3472.2807    3129.4239    1937.2315    1192.1924    276.43599     877.1052    26803.111   0.60494922 
  357000       357000     2866.368    3059.7468    1898.3182    1161.4287     270.8832   -494.70679    26803.111   0.60494922 
  358000       358000    2795.3229    3096.9632    1922.1365    1174.8267    274.28199   -771.66414    26803.111   0.60494922 
  359000       359000    3361.4255    3027.7234    1897.0657    1130.6577    270.70448    853.68534    26803.111   0.60494922 
  360000       360000    2893.6346    3116.9281    1918.0744    1198.8537    273.70235   -571.23539    26803.111   0.60494922 
  361000       361000    2512.4119    3020.9972    1874.6912     1146.306    267.51172   -1301.0761    26803.111   0.60494922 
  362000       362000    2920.3586    3101.6033     1885.788    1215.8153    269.09519   -463.66503    26803.111   0.60494922 
  363000       363000    3260.5775     3012.065    1900.9828    1111.0822    271.26344    635.75105    26803.111   0.60494922 
  364000       364000    2989.2622    3102.9519    1879.1421    1223.8098    268.14685   -290.84405    26803.111   0.60494922 
  365000       365000    3112.6827    3034.0942    1865.4552    1168.6391    266.19377    201.04706    26803.111   0.60494922 
  366000       366000    2985.7979     3064.089    1915.1984    1148.8906    273.29194   -200.28639    26803.111   0.60494922 
  367000       367000    2962.3148    3120.0415    1920.4004     1199.641    274.03426   -403.50043    26803.111   0.60494922 
  368000       368000    3098.9326    3114.7423     1916.124    1198.6183    273.42404   -40.444906    26803.111   0.60494922 
  369000       369000    3294.7087     3097.046    1921.6988    1175.3471    274.21954    505.66593    26803.111   0.60494922 
  370000       370000    2999.9262    3054.6819    1865.3175    1189.3643    266.17413   -140.07741    26803.111   0.60494922 
  371000       371000    3329.4032     3174.294    1961.8855    1212.4085    279.95404    396.80436    26803.111   0.60494922 
  372000       372000    2752.2141    3079.0083    1886.0998    1192.9085    269.13969   -836.01347    26803.111   0.60494922 
  373000       373000    2280.8762    2929.4099    1820.5372    1108.8728    259.78413   -1659.0959    26803.111   0.60494922 
  374000       374000    2816.4231    3096.8239    1896.1441    1200.6798    270.57297   -717.32858    26803.111   0.60494922 
  375000       375000    3715.2294    3040.1438    1896.2615    1143.8823    270.58972    1727.0214    26803.111   0.60494922 
  376000       376000    3816.0569    3087.3383    1925.4836    1161.8548    274.75961    1864.2267    26803.111   0.60494922 
  377000       377000    2787.1508    3124.4229    1917.2738    1207.1491    273.58811   -862.81837    26803.111   0.60494922 
  378000       378000    3188.5052    3118.6666    1920.2372    1198.4294    274.01096    178.66291    26803.111   0.60494922 
  379000       379000    2160.4881    3157.1238    1911.7013    1245.4225    272.79293   -2549.6194    26803.111   0.60494922 
  380000       380000    3154.9922    3159.3695    1938.8881    1220.4814    276.67239   -11.198137    26803.111   0.60494922 
  381000       381000    2578.0961    3067.9053    1890.5456    1177.3597    269.77408   -1253.0426    26803.111   0.60494922 
  382000       382000    2627.3465    3021.4526    1868.8601    1152.5926    266.67963   -1008.2125    26803.111   0.60494922 
  383000       383000    3421.4266    3127.3464    1915.4328    1211.9136     273.3254    752.32354    26803.111   0.60494922 
  384000       384000    2725.2882    3086.4945    1883.0651    1203.4294    268.70664   -924.04735    26803.111   0.60494922 
  385000       385000    3280.4965    3106.1068    1892.7607    1213.3461    270.09016    446.12836    26803.111   0.60494922 
  386000       386000    3020.9582    3149.1255    1892.3013    1256.8242    270.02462   -327.88096    26803.111   0.60494922 
  387000       387000    3159.2938    3083.0907    1917.6757     1165.415    273.64545    194.94483    26803.111   0.60494922 
  388000       388000    2609.5131    3120.7688    1883.1068     1237.662    268.71259   -1307.9076    26803.111   0.60494922 
  389000       389000    2659.3663    3021.5553    1860.6078    1160.9475    265.50207   -926.56137    26803.111   0.60494922 
  390000       390000    2988.4269    3068.0954    1922.6147    1145.4807    274.35023   -203.81001    26803.111   0.60494922 
  391000       391000    2721.9277    3116.8325    1893.2355    1223.5969    270.15793   -1010.2557    26803.111   0.60494922 
  392000       392000    2736.3776    3034.7033    1870.8978    1163.8055    266.97041   -763.18461    26803.111   0.60494922 
  393000       393000    3174.4986    3077.4274    1925.9426    1151.4847    274.82512    248.33021    26803.111   0.60494922 
  394000       394000    3026.7139    3094.4065    1900.9786    1193.4279    271.26283    -173.1728    26803.111   0.60494922 
  395000       395000    3006.1088    3059.5402    1894.9966    1164.5437    270.40922   -136.68961    26803.111   0.60494922 
  396000       396000    2984.2144     3039.244    1912.5776    1126.6664    272.91798   -140.77819    26803.111   0.60494922 
  397000       397000    3470.5582    3113.2616    1938.0375    1175.2241      276.551    914.04549    26803.111   0.60494922 
  398000       398000    3066.9999    3089.6778    1904.2742    1185.4036    271.73311   -58.015187    26803.111   0.60494922 
  399000       399000     3010.337    3096.7578    1929.6336    1167.1242     275.3518   -221.08394    26803.111   0.60494922 
  400000       400000    3096.2532    3027.0775    1903.9662    1123.1113    271.68916    176.96703    26803.111   0.60494922 
  401000       401000     2624.854    3080.6278    1889.1296    1191.4982    269.57203   -1165.9724    26803.111   0.60494922 
  402000       402000    2826.7374     3197.159    1940.1148    1257.0442    276.84743   -947.62231    26803.111   0.60494922 
  403000       403000    3256.8223    3072.0356    1837.1574    1234.8782    262.15578      472.726    26803.111   0.60494922 
  404000       404000    2492.9064    3077.2679    1906.9397    1170.3282    272.11346   -1494.9287    26803.111   0.60494922 
  405000       405000    3234.8452    3175.1936    1937.5607     1237.633    276.48297     152.6022    26803.111   0.60494922 
  406000       406000     3335.173    3055.9032     1887.855    1168.0482    269.39015    714.43517    26803.111   0.60494922 
  407000       407000    3366.8353    3129.7259    1922.5782    1207.1477    274.34502    606.57959    26803.111   0.60494922 
  408000       408000    3483.8358    3067.8466    1934.3344    1133.5122    276.02259    1064.1943    26803.111   0.60494922 
  409000       409000     3223.635    3177.7148    1917.3043    1260.4105    273.59245    117.47411    26803.111   0.60494922 
  410000       410000    2900.5031    3092.4608     1936.654    1155.8068    276.35359   -491.07108    26803.111   0.60494922 
  411000       411000    3703.1625    3048.2742    1925.1669    1123.1073    274.71442    1675.3522    26803.111   0.60494922 
  412000       412000    2983.1476    3049.5983     1846.576    1203.0223    263.49978   -169.99583    26803.111   0.60494922 
  413000       413000    2782.0082    3106.1203    1910.3733     1195.747    272.60342   -829.15218    26803.111   0.60494922 
  414000       414000    2636.0912    3021.2347    1862.5582    1158.6765    265.78038   -985.28408    26803.111   0.60494922 
  415000       415000     3192.112    3123.6748    1931.0301    1192.6447    275.55108    175.07777    26803.111   0.60494922 
  416000       416000    2752.2461     3156.065    1947.5546    1208.5104    277.90906   -1033.0601    26803.111   0.60494922 
  417000       417000    3654.7722    3060.0042    1903.1724    1156.8318    271.57588    1521.5512    26803.111   0.60494922 
  418000       418000    3648.0008    3086.4029    1901.8068    1184.5961    271.38101    1436.6945    26803.111   0.60494922 
  419000       419000    2456.6529    3080.9145    1932.0942    1148.8203    275.70292   -1597.0021    26803.111   0.60494922 
  420000       420000    2996.5841    3101.7363    1915.6834    1186.0529    273.36116   -269.00315    26803.111   0.60494922 
  421000       421000    2970.9563     3062.038     1883.959     1178.079     268.8342   -233.00759    26803.111   0.60494922 
  422000       422000    2797.3738    3143.3231    1958.4815    1184.8416    279.46829    -885.0164    26803.111   0.60494922 
  423000       423000    3149.9904    3071.7298     1924.112    1147.6178    274.56389    200.20822    26803.111   0.60494922 
  424000       424000    2999.7105    3142.2995    1926.0044    1216.2952    274.83392   -364.77505    26803.111   0.60494922 
  425000       425000    3423.5184    3092.4447    1897.6866    1194.7581    270.79307    846.96157    26803.111   0.60494922 
  426000       426000    2746.5975    3035.3582    1912.3263    1123.0319     272.8821   -738.71518    26803.111   0.60494922 
  427000       427000    3051.5552    3068.8128    1888.1948     1180.618    269.43864   -44.148893    26803.111   0.60494922 
  428000       428000    3633.0974    3114.0054      1919.88    1194.1254       273.96    1327.9546    26803.111   0.60494922 
  429000       429000    2693.6837    3095.5198    1919.9797    1175.5401    273.97422   -1027.9875    26803.111   0.60494922 
  430000       430000    2509.2622      3058.05    1880.6844    1177.3656    268.36693   -1403.9232    26803.111   0.60494922 
  431000       431000    2773.8709    3046.5613     1867.865    1178.6962    266.53765   -697.60353    26803.111   0.60494922 
  432000       432000    3341.3802    3120.4249    1897.9922    1222.4328    270.83668    565.25343    26803.111   0.60494922 
  433000       433000    3021.4581    3048.9073    1929.5154    1119.3919    275.33494   -70.221398    26803.111   0.60494922 
  434000       434000    3399.3221     3146.007    1974.7329    1171.2742    281.78731    648.03717    26803.111   0.60494922 
  435000       435000    3036.4089    3065.7276    1883.6602    1182.0674    268.79156   -75.003761    26803.111   0.60494922 
  436000       436000     2936.946    3137.5881    1936.3868    1201.2014    276.31545   -513.28803    26803.111   0.60494922 
  437000       437000    2624.8161    3111.8343    1881.1949    1230.6394    268.43977   -1245.9026    26803.111   0.60494922 
  438000       438000    3520.7031    3094.9612    1935.7952     1159.166    276.23104    1089.1442    26803.111   0.60494922 
  439000       439000    3393.9357    3181.3133    1987.5057    1193.8076    283.60995    543.93605    26803.111   0.60494922 
  440000       440000    3086.9678    3143.7244    1895.6226    1248.1018    270.49855   -145.19616    26803.111   0.60494922 
  441000       441000    2747.7798    3058.8074    1844.2726    1214.5348    263.17109   -795.67892    26803.111   0.60494922 
  442000       442000    2827.4566    3077.1788    1932.5929    1144.5859    275.77408   -638.84581    26803.111   0.60494922 
  443000       443000    3644.5195     3100.073    1935.7552    1164.3178    276.22533    1392.8172    26803.111   0.60494922 
  444000       444000    2361.5063    3155.1126    1934.3375    1220.7751    276.02303   -2030.2243    26803.111   0.60494922 
  445000       445000    3043.5427    3104.2431    1940.1129    1164.1303    276.84715   -155.28534    26803.111   0.60494922 
  446000       446000      2773.83     3006.645     1906.532     1100.113    272.05529   -595.59334    26803.111   0.60494922 
  447000       447000    2760.2015    3088.4518    1933.2117    1155.2401    275.86239    -839.7386    26803.111   0.60494922 
  448000       448000     2689.811    3013.0767    1866.1131    1146.9637    266.28765   -826.98692    26803.111   0.60494922 
  449000       449000    2877.3631    3060.3221    1889.1991     1171.123    269.58194   -468.05039    26803.111   0.60494922 
  450000       450000     3473.061    3124.8207    1913.3487    1211.4719    273.02801    890.87742    26803.111   0.60494922 
  451000       451000    2720.9529    3102.3852    1931.8402     1170.545    275.66667   -975.78999    26803.111   0.60494922 
  452000       452000    2989.8273    3090.6339    1929.1388    1161.4951     275.2812   -257.88603    26803.111   0.60494922 
  453000       453000    3114.4323    3100.8966    1933.6038    1167.2928    275.91834    34.627217    26803.111   0.60494922 
  454000       454000    3339.9887    3136.3614    1931.2375    1205.1239    275.58067    520.92465    26803.111   0.60494922 
  455000       455000    3264.1579    3078.0816    1896.8495    1181.2321    270.67363    476.02524    26803.111   0.60494922 
  456000       456000    2747.2614    3108.8472    1916.3218    1192.5255    273.45225   -925.01827    26803.111   0.60494922 
  457000       457000    2815.0639    3166.3648    1944.0801    1222.2847    277.41327   -898.70713    26803.111   0.60494922 
  458000       458000    2669.9948    3065.2684    1910.6622    1154.6062    272.64465   -1011.1991    26803.111   0.60494922 
  459000       459000    3909.3737    3127.6965    1930.4618    1197.2348    275.46998    1999.7069    26803.111   0.60494922 
  460000       460000    2889.9919    3120.1034    1957.9437    1162.1597    279.39156    -588.6773    26803.111   0.60494922 
  461000       461000     2842.777    3085.9019    1940.2366    1145.6653    276.86481   -621.96836    26803.111   0.60494922 
  462000       462000    3139.3521    3119.4765    1938.1209    1181.3556    276.56291    50.846391    26803.111   0.60494922 
  463000       463000    2465.1847    3188.9893     1916.186    1272.8033    273.43288   -1851.6556    26803.111   0.60494922 
  464000       464000    2742.9057    3048.4536     1874.458    1173.9956    267.47844   -781.66056    26803.111   0.60494922 
  465000       465000    3261.9736    3078.4233    1913.4471    1164.9762    273.04205    469.56309    26803.111   0.60494922 
  466000       466000    3174.1265    3096.6663    1911.7884     1184.878    272.80535    198.16066    26803.111   0.60494922 
  467000       467000    3485.7509    3112.4854    1933.8017    1178.6837    275.94658    954.89753    26803.111   0.60494922 
  468000       468000     2975.249    3083.1046    1903.4529    1179.6517    271.61591   -275.91905    26803.111   0.60494922 
  469000       469000    3607.4257    3099.9456    1889.1673    1210.7783    269.57741    1298.2487    26803.111   0.60494922 
  470000       470000    3643.7312    3055.1745      1869.47    1185.7045    266.76668    1505.6611    26803.111   0.60494922 
  471000       471000    3057.1519    3029.3226    1875.6901    1153.6326    267.65425     71.19357    26803.111   0.60494922 
  472000       472000    3043.2964    3156.0255    1911.1407    1244.8848    272.71293   -288.38649    26803.111   0.60494922 
  473000       473000    3270.9259    3045.9824    1921.0196    1124.9628    274.12261    575.45636    26803.111   0.60494922 
  474000       474000    3195.2495    3117.3978    1894.6392    1222.7587    270.35822    199.16218    26803.111   0.60494922 
  475000       475000    3238.9643    3085.2582    1900.1902     1185.068    271.15033    393.21497    26803.111   0.60494922 
  476000       476000    2696.8099     3047.603    1893.9098    1153.6932    270.25414   -897.40813    26803.111   0.60494922 
  477000       477000    3420.7185    3103.2924    1931.0914     1172.201    275.55983    812.04771    26803.111   0.60494922 
  478000       478000    2427.9352     3083.409    1880.9727    1202.4363    268.40807   -1676.8501    26803.111   0.60494922 
  479000       479000    3140.4147    3162.5381    1943.7025    1218.8357    277.35938   -56.596675    26803.111   0.60494922 
  480000       480000    3576.0801    3070.9646    1930.5125    1140.4521    275.47721    1292.1996    26803.111   0.60494922 
  481000       481000    3440.5742    3147.2208     1935.624    1211.5968    276.20661    750.46443    26803.111   0.60494922 
  482000       482000    3181.6265     3044.531    1840.9284    1203.6026    262.69388    350.72126    26803.111   0.60494922 
  483000       483000    3104.0196    3106.3087    1920.7498    1185.5589    274.08412   -5.8560739    26803.111   0.60494922 
  484000       484000    3133.9685    3058.7598    1876.2809     1182.479    267.73856    192.40078    26803.111   0.60494922 
  485000       485000    2253.0954    3106.5817    1851.3885    1255.1932     264.1865   -2183.4108    26803.111   0.60494922 
  486000       486000    3714.0534    3185.9062    1967.9881     1217.918    280.82486      1351.12    26803.111   0.60494922 
  487000       487000    2930.2326    3123.5674    1949.2487    1174.3187    278.15081   -494.59412    26803.111   0.60494922 
  488000       488000    3145.8893    3170.0172    1921.6489    1248.3684    274.21241   -61.724696    26803.111   0.60494922 
  489000       489000    2957.6646    3113.5767    1930.7985    1182.7782    275.51803   -398.85842    26803.111   0.60494922 
  490000       490000    2731.6751    3018.2241    1873.4208    1144.8033    267.33043   -733.05694    26803.111   0.60494922 
  491000       491000    2475.3988    3085.4675    1920.7088    1164.7587    274.07827   -1560.6937    26803.111   0.60494922 
  492000       492000    2892.0182    3083.8884    1885.2066    1198.6818    269.01223   -490.84734    26803.111   0.60494922 
  493000       493000    2322.8099    3015.4773    1866.8259    1148.6514    266.38936   -1771.9997    26803.111   0.60494922 
  494000       494000    3135.3295    3132.5666    1908.9753    1223.5913    272.40393    7.0680736    26803.111   0.60494922 
  495000       495000    3395.0327    3085.9233    1892.5028    1193.4205    270.05337    790.77179    26803.111   0.60494922 
  496000       496000    3532.7119    3170.5824    1931.3311    1239.2512    275.59403    926.40916    26803.111   0.60494922 
  497000       497000    3045.5329    3141.7412    1936.7695    1204.9717    276.37007   -246.12261    26803.111   0.60494922 
  498000       498000    3412.5577    3043.1116    1882.4605    1160.6511    268.62036    945.12656    26803.111   0.60494922 
  499000       499000    3058.1001    3094.0282    1920.0645    1173.9637    273.98633   -91.912247    26803.111   0.60494922 
  500000       500000    3554.2541    3088.0432    1891.3024    1196.7408    269.88207    1192.6728    26803.111   0.60494922 
  501000       501000    2763.6427    3052.0531    1846.5924    1205.4607    263.50212   -737.81892    26803.111   0.60494922 
  502000       502000    3402.6875     3123.728    1935.5454    1188.1825     276.1954    713.64148    26803.111   0.60494922 
  503000       503000    2792.1928    3140.6436    1957.1433    1183.5004    279.27733   -891.41598    26803.111   0.60494922 
  504000       504000    3130.2791    3094.5278    1885.0673    1209.4605    268.99234     91.46007    26803.111   0.60494922 
  505000       505000    3057.0777    3087.2909    1942.3261    1144.9648    277.16298   -77.292117    26803.111   0.60494922 
  506000       506000    2671.4289    3222.1105    1967.2388    1254.8717    280.71792   -1408.7679    26803.111   0.60494922 
  507000       507000    3984.9974    3080.9772    1885.3667    1195.6105    269.03507     2312.688    26803.111   0.60494922 
  508000       508000    3532.7629    3043.0125    1900.6968    1142.3156    271.22263    1252.8921    26803.111   0.60494922 
  509000       509000    3025.5414    3132.7851    1945.6999    1187.0852     277.6444   -274.35351    26803.111   0.60494922 
  510000       510000    3422.0291    3114.5468    1909.4287    1205.1181    272.46863     786.6093    26803.111   0.60494922 
  511000       511000    2959.6109    3047.5733    1879.9891    1167.5842    268.26772    -225.0278    26803.111   0.60494922 
  512000       512000    3445.4035    3125.9761    1928.6592    1197.3169    275.21276    817.16758    26803.111   0.60494922 
  513000       513000    2964.5143     3090.314      1883.28     1207.034    268.73731   -321.82408    26803.111   0.60494922 
  514000       514000     3016.891    3048.1554    1892.0349    1156.1205     269.9866   -79.981413    26803.111   0.60494922 
  515000       515000    3166.7761     3099.202    1893.1014    1206.1007    270.13878    172.86967    26803.111   0.60494922 
  516000       516000    3100.1872    3147.4073    1914.0326    1233.3747     273.1256    -120.7996    26803.111   0.60494922 
  517000       517000    3020.0338    3093.1238    1903.8409    1189.2829    271.67128   -186.98071    26803.111   0.60494922 
  518000       518000     2621.383    3040.4092    1868.2405    1172.1687    266.59123   -1071.9637    26803.111   0.60494922 
  519000       519000    2935.4265    3082.6044    1885.8509    1196.7535    269.10417   -376.51456    26803.111   0.60494922 
  520000       520000    3347.5492    3018.6431    1862.3003    1156.3428    265.74358    841.41605    26803.111   0.60494922 
  521000       521000    3040.0633    3143.5171    1972.2559    1171.2612    281.43385   -264.65797    26803.111   0.60494922 
  522000       522000    3121.0303    3106.2975    1918.8752    1187.4223    273.81662    37.689945    26803.111   0.60494922 
  523000       523000    3603.6188    3019.6557    1876.1078    1143.5479    267.71386    1493.9095    26803.111   0.60494922 
  524000       524000    3303.9506    3082.8037    1881.3039    1201.4998    268.45533    565.74358    26803.111   0.60494922 
  525000       525000    3217.4319    3118.9241     1920.796    1198.1281     274.0907    252.00538    26803.111   0.60494922 
  526000       526000    2784.7703    3043.1749    1867.6046    1175.5703    266.50049   -661.05724    26803.111   0.60494922 
  527000       527000    3124.8208    3080.7864    1933.3516    1147.4349    275.88234    112.64997    26803.111   0.60494922 
  528000       528000    3154.7497    3075.6396    1931.0408    1144.5988     275.5526    202.38148    26803.111   0.60494922 
  529000       529000    3078.0569    3017.4376    1863.0695    1154.3682    265.85334    155.07766    26803.111   0.60494922 
  530000       530000    3339.6318    3055.7274    1919.0309    1136.6965    273.83884    726.29171    26803.111   0.60494922 
  531000       531000    3405.1338    3108.8374    1923.7774      1185.06    274.51614    757.99321    26803.111   0.60494922 
  532000       532000    3490.8831    3097.4539    1908.1182    1189.3357    272.28163     1006.481    26803.111   0.60494922 
  533000       533000    3105.7073     3032.595    1866.7965    1165.7985    266.38517    187.03772    26803.111   0.60494922 
  534000       534000    2940.9653    3092.7698    1861.6485    1231.1213    265.65057   -388.35015    26803.111   0.60494922 
  535000       535000    3290.6685    3093.8462    1901.4778    1192.3683    271.33408    503.51591    26803.111   0.60494922 
  536000       536000    2963.9086    3085.1522    1907.0623    1178.0899    272.13096    -310.1687    26803.111   0.60494922 
  537000       537000    3049.0141     3117.414    1906.1614    1211.2526     272.0024   -174.98229    26803.111   0.60494922 
  538000       538000    2699.4118    3112.7213    1875.0719    1237.6493    267.56605    -1057.339    26803.111   0.60494922 
  539000       539000    2082.4006     3057.006     1860.815     1196.191    265.53164   -2493.2609    26803.111   0.60494922 
  540000       540000    2972.3973    3067.0152    1870.8965    1196.1187    266.97023   -242.05408    26803.111   0.60494922 
  541000       541000    3563.9429    3163.1274    1938.7026    1224.4248    276.64591    1025.3768    26803.111   0.60494922 
  542000       542000    3115.6514    3119.0713     1921.849    1197.2223    274.24097   -8.7490176    26803.111   0.60494922 
  543000       543000    2904.1831    3022.1392    1863.0734    1159.0659     265.8539   -301.75857    26803.111   0.60494922 
  544000       544000     4083.969    3126.7302    1941.7121    1185.0181    277.07536    2448.8331    26803.111   0.60494922 
  545000       545000    2996.3018    3059.0786    1873.4089    1185.6696    267.32874   -160.59706    26803.111   0.60494922 
  546000       546000    3340.5907    3147.1271    1944.0295    1203.0976    277.40604    494.92354    26803.111   0.60494922 
  547000       547000    2705.0373    3085.0213    1898.4835    1186.5378    270.90679   -972.08496    26803.111   0.60494922 
  548000       548000    3339.7421    3091.0281    1924.0732    1166.9548    274.55836    636.26671    26803.111   0.60494922 
  549000       549000    3565.9388    3164.4636    1943.1045    1221.3592    277.27405    1027.0643    26803.111   0.60494922 
  550000       550000     3255.278    3009.4555    1876.0754      1133.38    267.70924     628.8696    26803.111   0.60494922 
  551000       551000    2993.6588     3075.626    1889.8494    1185.7766    269.67474   -209.69064    26803.111   0.60494922 
  552000       552000    3335.6713    3098.9473    1919.6986    1179.2487    273.93412    605.59352    26803.111   0.60494922 
  553000       553000    3176.4951    3116.7127     1914.701    1202.0118    273.22097    152.93693    26803.111   0.60494922 
  554000       554000    3049.2402    3068.6698     1924.037    1144.6328    274.55319   -49.705533    26803.111   0.60494922 
  555000       555000    3325.1643     3133.484    1932.8996    1200.5844    275.81785    490.36149    26803.111   0.60494922 
  556000       556000    2501.2239     3074.701    1921.8852    1152.8158    274.24613    -1467.084    26803.111   0.60494922 
  557000       557000    3159.2044    3123.4225    1910.0869    1213.3356    272.56255    91.538273    26803.111   0.60494922 
  558000       558000    2786.4452    2998.2378    1851.5272    1146.7106     264.2063    -541.8132    26803.111   0.60494922 
  559000       559000     3172.203    3106.5213     1931.266    1175.2552    275.58474    168.02865    26803.111   0.60494922 
  560000       560000    3135.2729    3119.8453    1888.7701    1231.0752    269.52072    39.467406    26803.111   0.60494922 
  561000       561000    2369.5289    3073.3461    1898.9538    1174.3923     270.9739   -1800.5233    26803.111   0.60494922 
  562000       562000    2991.1109    3084.3201    1900.9036    1183.4165    271.25213   -238.45027    26803.111   0.60494922 
  563000       563000    2680.6149    3102.8596    1899.3579    1203.5017    271.03157   -1080.1975    26803.111   0.60494922 
  564000       564000    3179.7849    2987.2681    1847.3898    1139.8782    263.61591    492.50164    26803.111   0.60494922 
  565000       565000    3453.1239    3106.2626    1936.4973    1169.7653    276.33122    887.34961    26803.111   0.60494922 
  566000       566000    3085.9089    3191.9381    1967.6982    1224.2399    280.78349   -271.24675    26803.111   0.60494922 
  567000       567000    2570.0735      3059.82    1927.2002    1132.6198    275.00457   -1252.8821    26803.111   0.60494922 
  568000       568000    2885.5553    3118.1357    1933.1731    1184.9626    275.85687   -594.99334    26803.111   0.60494922 
  569000       569000    2981.4296    3159.7828    1960.8103    1198.9725    279.80061   -456.26786    26803.111   0.60494922 
  570000       570000    2641.5398    3067.6276    1884.5225    1183.1051    268.91461   -1090.0291    26803.111   0.60494922 
  571000       571000     2593.317     3137.527    1894.6237    1242.9034    270.35601   -1392.2123    26803.111   0.60494922 
  572000       572000    3355.2806    3054.6396    1928.6231    1126.0165    275.20761    769.10764    26803.111   0.60494922 
  573000       573000    3234.5921    3107.7641    1896.1753    1211.5888    270.57742    324.45457    26803.111   0.60494922 
  574000       574000    2859.6512    3121.9483    1925.7329    1196.2154    274.79519   -671.01528    26803.111   0.60494922 
  575000       575000    2104.6766    3032.3328     1813.181    1219.1518    258.73443   -2373.1541    26803.111   0.60494922 
  576000       576000    2797.6938    3135.0134    1925.9199    1209.0936    274.82186   -862.93974    26803.111   0.60494922 
  577000       577000    3077.8506    3058.2917    1869.7133    1188.5783     266.8014    50.036243    26803.111   0.60494922 
  578000       578000    3095.6596    3132.1337    1934.9879    1197.1458    276.11585   -93.309022    26803.111   0.60494922 
  579000       579000    2502.2451    3173.5494    1910.2152    1263.3342    272.58087   -1717.3483    26803.111   0.60494922 
  580000       580000    3413.9733    3094.4811    1925.8257    1168.6555    274.80842    817.33312    26803.111   0.60494922 
  581000       581000    3079.6313    3134.9229    1935.7128    1199.2102    276.21928    -141.4486    26803.111   0.60494922 
  582000       582000    2779.0953    3109.3557    1863.3379    1246.0178    265.89164   -844.88069    26803.111   0.60494922 
  583000       583000    2733.6328     3011.346    1843.2435    1168.1025    263.02425   -710.45328    26803.111   0.60494922 
  584000       584000    3347.9141    3108.6086    1908.5293    1200.0793    272.34029    612.19756    26803.111   0.60494922 
  585000       585000    2672.3563    3153.3554    1949.8835    1203.4718     278.2414   -1230.5043    26803.111   0.60494922 
  586000       586000    3298.4618    3089.1426    1913.0192    1176.1233    272.98099    535.48606    26803.111   0.60494922 
  587000       587000     3482.704    3103.5548    1905.8418    1197.7131    271.95679    969.94918    26803.111   0.60494922 
  588000       588000    3163.0129    3163.3201    1951.1551    1212.1649    278.42284  -0.78582495    26803.111   0.60494922 
  589000       589000    2675.7866     3076.175    1891.7243    1184.4507    269.94228   -1024.2842    26803.111   0.60494922 
  590000       590000    3099.2461    3042.1963    1899.6169    1142.5794    271.06852    145.94647    26803.111   0.60494922 
  591000       591000    3249.9408    3121.1421    1915.6918    1205.4502    273.36236    329.49633    26803.111   0.60494922 
  592000       592000     3316.845    3068.0501      1930.28    1137.7702    275.44404    636.47353    26803.111   0.60494922 
  593000       593000    3400.4665     3168.185    1979.7943    1188.3907    282.50955    594.22847    26803.111   0.60494922 
  594000       594000    3779.3024    3047.4625     1862.585    1184.8774    265.78421     1872.212    26803.111   0.60494922 
  595000       595000    3263.8804    3143.6716    1927.6397     1216.032    275.06728    307.52123    26803.111   0.60494922 
  596000       596000    3235.4235    3021.1026    1929.9312    1091.1715    275.39426    548.28114    26803.111   0.60494922 
  597000       597000    3339.1393    3049.1453    1887.0149    1162.1304    269.27027    741.87005    26803.111   0.60494922 
  598000       598000    3660.7072     3086.492     1917.077    1169.4151    273.56002    1468.9722    26803.111   0.60494922 
  599000       599000    2862.4663    3152.9493    1950.4665    1202.4827    278.32459   -743.12114    26803.111   0.60494922 
  600000       600000    3431.4048    3070.8392    1919.5577    1151.2815      273.914    922.40828    26803.111   0.60494922 
  601000       601000     2832.145    3170.5249    1983.7127    1186.8122     283.0687   -865.65235    26803.111   0.60494922 
  602000       602000    2783.6324    3118.4951    1911.8137    1206.6814    272.80897   -856.65434    26803.111   0.60494922 
  603000       603000    3385.7797    3083.0719    1901.0203    1182.0517    271.26878     774.3949    26803.111   0.60494922 
  604000       604000    2422.1646    3006.2125    1845.2817    1160.9308    263.31508   -1494.1265    26803.111   0.60494922 
  605000       605000    2736.7845    3043.5519    1881.7787    1161.7732    268.52308   -784.78038    26803.111   0.60494922 
  606000       606000    2937.0743     3120.112    1922.2329    1197.8792    274.29574   -468.25187    26803.111   0.60494922 
[...]
  854000       854000    3102.1038    3110.6696    1925.4424    1185.2272    274.75374   -21.913146    26803.111   0.60494922 
  855000       855000    2813.5339    3113.5485    1910.8576    1202.6909    272.67254   -767.50519    26803.111   0.60494922 
  856000       856000     2887.428    3063.3018     1888.377    1174.9249    269.46463   -449.92497    26803.111   0.60494922 
  857000       857000    2559.3873    3135.6693    1927.1208    1208.5486    274.99323   -1474.2596    26803.111   0.60494922 
  858000       858000    2909.5496    3034.5162    1879.9078    1154.6084     268.2561   -319.69276    26803.111   0.60494922 
  859000       859000    2447.5269    3026.4436    1884.8698    1141.5739    268.96416   -1480.9998    26803.111   0.60494922 
  860000       860000    3093.1435    3102.3953    1911.7871    1190.6082    272.80518   -23.668208    26803.111   0.60494922 
  861000       861000    3659.7756     3125.731    1904.8485    1220.8824    271.81506    1366.2068    26803.111   0.60494922 
  862000       862000    3059.1173    3085.6717    1930.0178    1155.6538    275.40663   -67.931984    26803.111   0.60494922 
  863000       863000    3071.4854    3067.9849     1879.041     1188.944    268.13241    8.9549093    26803.111   0.60494922 
  864000       864000    2768.0717    3029.2249    1855.2877    1173.9372     264.7429    -668.0887    26803.111   0.60494922 
  865000       865000    3045.6399    3116.3346    1923.3678    1192.9668    274.45769   -180.85294    26803.111   0.60494922 
  866000       866000    2585.0643    3056.7573    1898.8408    1157.9164    270.95778   -1206.6972    26803.111   0.60494922 
  867000       867000    2893.9968    3086.4995    1888.5968    1197.9027    269.49599    -492.4654    26803.111   0.60494922 
  868000       868000    3085.9658     3091.627     1920.734     1170.893    274.08186   -14.482698    26803.111   0.60494922 
  869000       869000    2659.2596    3122.5094    1894.6127    1227.8968    270.35444   -1185.0978    26803.111   0.60494922 
  870000       870000    3408.8597    3049.4393    1935.7833    1113.6559    276.22935    919.47863    26803.111   0.60494922 
  871000       871000    3532.6712    3132.7013    1933.0174    1199.6839    275.83465    1023.2134    26803.111   0.60494922 
  872000       872000    2944.3262     3136.336    1935.2081    1201.1279    276.14727   -491.20459    26803.111   0.60494922 
  873000       873000    3634.6528    3099.0244    1898.3814     1200.643    270.89222    1370.2586    26803.111   0.60494922 
  874000       874000    3669.4675    3068.7688    1885.4942    1183.2746    269.05327     1536.723    26803.111   0.60494922 
  875000       875000      3317.16    3028.3677    1890.7541    1137.6136    269.80384    738.79602    26803.111   0.60494922 
  876000       876000    3051.8628    3123.4661    1969.0891     1154.377    280.98196   -183.17744    26803.111   0.60494922 
  877000       877000    3153.7123    3100.9359    1910.7773    1190.1586    272.66107    135.01393    26803.111   0.60494922 
  878000       878000    3417.4488     3062.304    1878.6433    1183.6607    268.07567    908.54047    26803.111   0.60494922 
  879000       879000    3363.4852    3105.6824     1867.073    1238.6093    266.42463     659.5178    26803.111   0.60494922 
  880000       880000    3190.1256    3165.9067    1924.5816    1241.3252    274.63089    61.957224    26803.111   0.60494922 
  881000       881000    3435.7213    3071.9636    1915.1331    1156.8304    273.28264    930.57443    26803.111   0.60494922 
  882000       882000     2930.778    2968.5192    1867.5286    1100.9906    266.48964   -96.550559    26803.111   0.60494922 
  883000       883000    2906.0032      3106.68     1884.971     1221.709    268.97861   -513.37656    26803.111   0.60494922 
  884000       884000    3128.0334    3120.9856    1896.3779    1224.6077    270.60633      18.0298    26803.111   0.60494922 
  885000       885000    2762.3351    3057.9738    1893.6882    1164.2856    270.22252   -756.31059    26803.111   0.60494922 
  886000       886000     3149.905     3091.363    1927.4632    1163.8998    275.04209    149.76368    26803.111   0.60494922 
  887000       887000    4110.4597     3119.438    1903.0791    1216.3588    271.56257    2535.2576    26803.111   0.60494922 
  888000       888000    3181.4438    3085.8896    1893.0358    1192.8538    270.12942    244.44935    26803.111   0.60494922 
  889000       889000    3131.7087    3078.7498    1896.1692    1182.5806    270.57656    135.48088    26803.111   0.60494922 
  890000       890000    3214.8322    3161.5747    1909.3784    1252.1963    272.46146    136.24481    26803.111   0.60494922 
  891000       891000    3184.5731    3066.5623    1906.4366    1160.1257    272.04167    301.89832    26803.111   0.60494922 
  892000       892000    3076.2214    3084.9003    1911.0632    1173.8371    272.70188   -22.202652    26803.111   0.60494922 
  893000       893000    2689.2324    3110.2541    1936.5533    1173.7008    276.33921   -1077.0684    26803.111   0.60494922 
  894000       894000     3176.661    3038.5573    1857.3411    1181.2162    265.03592    353.30046    26803.111   0.60494922 
  895000       895000    3081.0251    3100.0067    1907.6745    1192.3322    272.21832   -48.559064    26803.111   0.60494922 
  896000       896000    2396.0184    3175.8735    1906.1774    1269.6961    272.00469   -1995.0455    26803.111   0.60494922 
  897000       897000    2923.6182    3069.8252     1890.523    1179.3022    269.77086   -374.03046    26803.111   0.60494922 
  898000       898000    3305.7334    3111.0092    1934.2877    1176.7215    276.01593    498.14843    26803.111   0.60494922 
  899000       899000    3378.1506    3123.3979    1898.1674    1225.2305    270.86169    651.71503    26803.111   0.60494922 
  900000       900000    2761.8279    3068.4279    1913.4865    1154.9415    273.04766   -784.35211    26803.111   0.60494922 
  901000       901000    2990.9128    3123.7401    1917.2772    1206.4629    273.58859   -339.80222    26803.111   0.60494922 
  902000       902000    3406.2321     3156.089    1923.7443    1232.3447    274.51141     639.9226    26803.111   0.60494922 
  903000       903000    2992.8842    3123.2708    1937.2139    1186.0569    276.43349   -333.55847    26803.111   0.60494922 
  904000       904000    3314.9693    3083.9161    1910.7817    1173.1345     272.6617     591.0861    26803.111   0.60494922 
  905000       905000    2897.3428    3085.3238    1876.9278     1208.396    267.83088   -480.89783    26803.111   0.60494922 
  906000       906000    2409.0058    3104.8731    1901.8234    1203.0497    271.38339   -1780.1859    26803.111   0.60494922 
  907000       907000    3176.4124    3098.3525    1909.1611    1189.1914    272.43045    199.69488    26803.111   0.60494922 
  908000       908000    3245.4702    3071.8605    1899.2041    1172.6564    271.00962    444.13283    26803.111   0.60494922 
  909000       909000    3430.6539    3117.4972    1926.0076    1191.4896    274.83438    801.12573    26803.111   0.60494922 
  910000       910000     2975.551    3063.6773    1881.9504    1181.7269    268.54758   -225.44697    26803.111   0.60494922 
  911000       911000    3702.4385    3181.9735    1954.9825     1226.991      278.969    1331.4672    26803.111   0.60494922 
  912000       912000    3244.9336    3094.6153    1909.2677    1185.3477    272.44565    384.54821    26803.111   0.60494922 
  913000       913000    3226.4872    3098.0651     1924.659    1173.4061    274.64194    328.53278    26803.111   0.60494922 
  914000       914000    2801.8416    3065.7361      1873.86    1191.8761    267.39311   -675.10192    26803.111   0.60494922 
  915000       915000    2782.5148    2996.6021    1842.9532    1153.6488    262.98282   -547.68375    26803.111   0.60494922 
  916000       916000    3208.8198    3134.9298    1899.8263    1235.1035     271.0984    189.02751    26803.111   0.60494922 
  917000       917000    3993.2649    3169.5222    1950.7682     1218.754    278.36763    2107.3202    26803.111   0.60494922 
  918000       918000     3134.051    3096.0415    1876.0854    1219.9561    267.71066    97.236894    26803.111   0.60494922 
  919000       919000    2909.9323       3037.5    1874.3239    1163.1761     267.4593   -326.34716    26803.111   0.60494922 
  920000       920000    3296.6828    3115.0555    1876.8482    1238.2073    267.81951    464.64386    26803.111   0.60494922 
  921000       921000    3270.7383    3030.1357    1868.4299    1161.7059    266.61825    615.51577    26803.111   0.60494922 
  922000       922000    3277.5469    3120.9875    1917.8676    1203.1199    273.67283    400.51431    26803.111   0.60494922 
  923000       923000    3082.8163    3092.8349    1896.8373    1195.9976    270.67188   -25.629718    26803.111   0.60494922 
  924000       924000     2464.367    3026.8929    1871.8332    1155.0597    267.10389   -1439.0684    26803.111   0.60494922 
  925000       925000    3239.0562    3128.3433    1895.4576    1232.8857    270.47501    283.22862    26803.111   0.60494922 
  926000       926000    2887.6153    3098.8289     1878.095    1220.7339    267.99743   -540.33215    26803.111   0.60494922 
  927000       927000    3099.8601    3187.5247    1967.1737     1220.351    280.70864   -224.26587    26803.111   0.60494922 
  928000       928000    3241.8911    3095.5135    1893.2173    1202.2963    270.15532    374.46692    26803.111   0.60494922 
  929000       929000    2899.5771    3075.8997    1909.1963    1166.7034    272.43547   -451.07297    26803.111   0.60494922 
  930000       930000    2913.4423    3063.6065    1878.7182    1184.8883    268.08635   -384.15397    26803.111   0.60494922 
  931000       931000    3616.6197    3097.6985    1907.0055    1190.6931    272.12285    1327.5178    26803.111   0.60494922 
  932000       932000    3448.4418    3103.0133    1905.8496    1197.1637    271.95792    883.68413    26803.111   0.60494922 
  933000       933000    3474.5965    3101.8896    1920.3731    1181.5165    274.03036    953.46846    26803.111   0.60494922 
  934000       934000    3485.2951    3098.3425    1921.7838    1176.5587    274.23167    989.91222    26803.111   0.60494922 
  935000       935000    2254.5406    3047.6616    1882.4246    1165.2369    268.61525   -2028.9828    26803.111   0.60494922 
  936000       936000    2603.4941    3090.7896    1926.7383    1164.0513    274.93865    -1246.612    26803.111   0.60494922 
  937000       937000    2776.2901    3132.0351    1921.9831     1210.052     274.2601    -910.0761    26803.111   0.60494922 
  938000       938000    3507.4611    3080.5951    1897.0513    1183.5438    270.70242    1092.0197    26803.111   0.60494922 
  939000       939000    3114.4001    3170.2725    1938.6378    1231.6347    276.63667   -142.93417    26803.111   0.60494922 
  940000       940000    2518.1647    3136.8883    1931.8868    1205.0016    275.67332   -1582.8349    26803.111   0.60494922 
  941000       941000    3132.0675    3115.3618    1869.5869    1245.7749    266.78335    42.736927    26803.111   0.60494922 
  942000       942000    2873.2847    3166.1851    1944.5359    1221.6492     277.4783   -749.30533    26803.111   0.60494922 
  943000       943000      3175.23      3138.39    1889.5095    1248.8805    269.62623    94.244911    26803.111   0.60494922 
  944000       944000    3686.3219    3099.1254    1896.0505     1203.075    270.55961    1502.1813    26803.111   0.60494922 
  945000       945000    2949.4464    3116.8724    1935.9109    1180.9615    276.24755   -428.31348    26803.111   0.60494922 
  946000       946000    2684.2929     3091.969    1921.9133    1170.0557    274.25014   -1042.9276    26803.111   0.60494922 
  947000       947000     2451.991    3137.6768    1898.8096    1238.8672    270.95333   -1754.1392    26803.111   0.60494922 
  948000       948000    3070.0363    3047.9569    1874.5138    1173.4431    267.48641    56.484118    26803.111   0.60494922 
  949000       949000    2983.0025    3100.1599    1973.8085    1126.3514     281.6554   -299.71524    26803.111   0.60494922 
  950000       950000      2771.53    3088.1284    1906.6388    1181.4896    272.07053   -809.93028    26803.111   0.60494922 
  951000       951000    3022.7453    3045.5273    1897.2929    1148.2345    270.73689   -58.281461    26803.111   0.60494922 
  952000       952000     3376.234    3105.2593    1901.7056    1203.5537    271.36657     693.2144    26803.111   0.60494922 
  953000       953000    3405.7781    3096.3352    1885.9184    1210.4168    269.11379    791.62488    26803.111   0.60494922 
  954000       954000       3410.6    3070.3484    1934.9065    1135.4419    276.10422    870.44059    26803.111   0.60494922 
  955000       955000    2910.7717    3120.2561    1930.1303    1190.1258    275.42268   -535.90852    26803.111   0.60494922 
  956000       956000    2705.3885    3065.7629    1875.0391    1190.7238    267.56136   -921.91925    26803.111   0.60494922 
  957000       957000    3273.1124    3087.5023    1892.1776    1195.3248    270.00696    474.83244    26803.111   0.60494922 
  958000       958000    3081.9426    3076.7429    1886.5122    1190.2308    269.19853    13.302069    26803.111   0.60494922 
  959000       959000    2972.8796    3102.7365    1914.5305     1188.206    273.19664   -332.20336    26803.111   0.60494922 
  960000       960000    3190.1999     3134.904    1946.0838    1188.8203    277.69918    141.45922    26803.111   0.60494922 
  961000       961000    2310.5955    3092.4008    1872.2604    1220.1404    267.16485   -2000.0347    26803.111   0.60494922 
  962000       962000    2983.7423    3113.2935    1905.4607    1207.8328    271.90241   -331.42116    26803.111   0.60494922 
  963000       963000    3652.1478    3091.0261    1921.7554    1169.2707    274.22761    1435.4761    26803.111   0.60494922 
  964000       964000    3187.5139    3149.1505    1917.0949    1232.0556    273.56258    98.142241    26803.111   0.60494922 
  965000       965000    2623.0858    3094.2457    1889.6727    1204.5731    269.64952   -1205.3336    26803.111   0.60494922 
  966000       966000    2644.3076    3053.8942    1849.2459    1204.6483    263.88076    -1047.815    26803.111   0.60494922 
  967000       967000    2884.2783    3021.3256    1881.6471    1139.6785     268.5043   -350.59792    26803.111   0.60494922 
  968000       968000    3090.5969    3059.9231    1865.6303    1194.2927    266.21876      78.4706    26803.111   0.60494922 
  969000       969000    3799.5752    3197.2176    1967.0162    1230.2014    280.68616    1540.9668    26803.111   0.60494922 
  970000       970000    3467.8793    3058.7738    1901.8032    1156.9705    271.38051    1046.5844    26803.111   0.60494922 
  971000       971000    2439.0878     3138.703    1933.2116    1205.4913    275.86237   -1789.7737    26803.111   0.60494922 
  972000       972000     2657.621    3079.6815    1857.3786    1222.3029    265.04127    -1079.726    26803.111   0.60494922 
  973000       973000    3223.8027    3091.9453    1888.5923     1203.353    269.49536    337.32089    26803.111   0.60494922 
  974000       974000    2996.0031    3038.7728    1909.4386    1129.3343    272.47004   -109.41466    26803.111   0.60494922 
  975000       975000    2918.3133    3116.9058    1926.6882    1190.2176     274.9315   -508.04449    26803.111   0.60494922 
  976000       976000    2801.0765    3104.5695    1917.4959    1187.0736     273.6198   -776.40375    26803.111   0.60494922 
  977000       977000    2694.8558    3060.7745    1912.2124    1148.5621    272.86586   -936.10254    26803.111   0.60494922 
  978000       978000    2924.0719    3111.4137    1912.1976    1199.2161    272.86375   -479.26273    26803.111   0.60494922 
  979000       979000    3352.0509    3003.2016    1842.3485     1160.853    262.89653    892.43539    26803.111   0.60494922 
  980000       980000    3222.6768    3089.1023    1920.2665    1168.8358    274.01515    341.71372    26803.111   0.60494922 
  981000       981000    3347.5489    3103.9899    1890.1676    1213.8223    269.72015    623.07896    26803.111   0.60494922 
  982000       982000    2954.1695    3037.2114    1888.5377    1148.6736    269.48757   -212.43994    26803.111   0.60494922 
  983000       983000    2835.3434    3118.7794    1915.4411    1203.3383    273.32658   -725.09328    26803.111   0.60494922 
  984000       984000    3586.4632      3067.72    1895.4919    1172.2282     270.4799    1327.0622    26803.111   0.60494922 
  985000       985000    2959.5188    3079.4137    1905.6072    1173.8064    271.92332   -306.71811    26803.111   0.60494922 
  986000       986000    2644.8416    3094.6489    1921.5495    1173.0994    274.19823   -1150.7089    26803.111   0.60494922 
  987000       987000    2971.7706    3081.6469    1925.7918    1155.8552    274.80358   -281.08832    26803.111   0.60494922 
  988000       988000    3110.4532    3167.4139      1933.53    1233.8839     275.9078   -145.71824    26803.111   0.60494922 
  989000       989000    3271.8719    3053.0245    1861.8269    1191.1976    265.67603    559.86121    26803.111   0.60494922 
  990000       990000    2315.4029    3123.8001    1904.4099    1219.3902    271.75247   -2068.0627    26803.111   0.60494922 
  991000       991000    3124.1861    3080.1177    1888.8754    1191.2423    269.53576    112.73701    26803.111   0.60494922 
  992000       992000    2710.3536    3098.2189    1900.6897    1197.5292    271.22161   -992.24704    26803.111   0.60494922 
  993000       993000    2931.2489    3097.8007    1914.9382    1182.8625    273.25482   -426.07724    26803.111   0.60494922 
  994000       994000    3421.5438    3081.2162    1897.2171    1183.9991    270.72608    870.63476    26803.111   0.60494922 
  995000       995000    3104.7977    3120.4933    1895.9904    1224.5029    270.55104   -40.152949    26803.111   0.60494922 
  996000       996000    2323.0891    3052.6697    1896.2668     1156.403    270.59047   -1866.4322    26803.111   0.60494922 
  997000       997000    2886.1481    3086.6636    1881.7539    1204.9097    268.51954   -512.96402    26803.111   0.60494922 
  998000       998000    2958.6593    3090.0855    1927.1526    1162.9328    274.99778   -336.21797    26803.111   0.60494922 
  999000       999000     2887.938    3104.7983    1913.9319    1190.8664    273.11123   -554.77777    26803.111   0.60494922 
 1000000      1000000     2866.283    3166.3367     1966.454    1199.8827    280.60594   -767.60532    26803.111   0.60494922 
Loop time of 1554.39 on 24 procs for 1000000 steps with 2352 atoms

Performance: 55.584 ns/day, 0.432 hours/ns, 643.338 timesteps/s
93.2% CPU use with 24 MPI tasks x 1 OpenMP threads

MPI task timing breakdown:
Section |  min time  |  avg time  |  max time  |%varavg| %total
---------------------------------------------------------------
Pair    | 678.98     | 694.82     | 713.78     |  31.7 | 44.70
Bond    | 37.315     | 37.823     | 38.389     |   4.3 |  2.43
Kspace  | 314.95     | 338.58     | 359.57     |  60.6 | 21.78
Neigh   | 47.865     | 48.978     | 49.567     |   6.8 |  3.15
Comm    | 345.15     | 352.87     | 362.4      |  22.0 | 22.70
Output  | 4.3087     | 4.3106     | 4.3305     |   0.2 |  0.28
Modify  | 14.346     | 16.186     | 18.335     |  29.7 |  1.04
Other   |            | 60.82      |            |       |  3.91

Nlocal:    98 ave 109 max 80 min
Histogram: 2 1 0 1 2 4 4 3 4 3
Nghost:    4982.96 ave 5071 max 4877 min
Histogram: 1 0 0 7 3 3 2 6 1 1
Neighs:    49385.8 ave 56518 max 40625 min
Histogram: 2 0 3 1 5 3 4 1 3 2

Total # of neighbors = 1185258
Ave neighs/atom = 503.936
Ave special neighs/atom = 9.14286
Neighbor list builds = 31854
Dangerous builds = 0

#write_data butane_afterr_nvt1.data
Total wall time: 0:25:54
