LAMMPS (3 Mar 2020)
  using 1 OpenMP thread(s) per MPI task
units           real
atom_style      full
boundary        p p p


pair_style      lj/cut/coul/long 12.0
pair_modify     tail yes mix geometric
bond_style      harmonic
angle_style     harmonic
dihedral_style  opls

kspace_style    ewald 1.0e-5
#special_bonds   lj/coul 0.0 0.0 0.5

neighbor        2.0 bin
neigh_modify    every 1 delay 0 check yes

read_data       buate_after_min.data
  orthogonal box = (0 0 0) to (35 35 35)
  2 by 3 by 5 MPI processor grid
  reading atoms ...
  2352 atoms
  reading velocities ...
  2352 velocities
  scanning bonds ...
  1 = max bonds/atom
  scanning angles ...
  6 = max angles/atom
  scanning dihedrals ...
  11 = max dihedrals/atom
  reading bonds ...
  2184 bonds
  reading angles ...
  4032 angles
  reading dihedrals ...
  4536 dihedrals
  4 = max # of 1-2 neighbors
  6 = max # of 1-3 neighbors
  9 = max # of 1-4 neighbors
  13 = max # of special neighbors
  special bonds CPU = 0.00124335 secs
  read_data CPU = 0.0373771 secs

group           mobile union all
2352 atoms in group mobile

#minimize 1.0e-8 1.0e-10 400000 400000
#write_data buate_after_min.data

thermo_style    custom step time  etotal ke pe temp press vol density
#thermo_modify   line multi
thermo          2000
thermo_modify   flush yes
timestep 1.0


## Equil NPT ##
fix      NPT  all npt temp 160 160 100 iso 1 1 1000
restart 1000000 liqbut1.restart

#fix      NPT  all npt temp 160 160 50 iso 1 1 500
dump myDump all atom 2000 butane_npt.lammpstrj

run 5000000
Ewald initialization ...
  using 12-bit tables for long-range coulomb (src/kspace.cpp:332)
  G vector (1/distance) = 0.183139
  estimated absolute RMS force accuracy = 0.00345955
  estimated relative force accuracy = 1.04183e-05
  KSpace vectors: actual max1d max3d = 257 5 665
                  kxmax kymax kzmax  = 5 5 5
Neighbor list info ...
  update every 1 steps, delay 0 steps, check yes
  max neighbors/atom: 2000, page size: 100000
  master list distance cutoff = 14
  ghost atom cutoff = 14
  binsize = 7, bins = 5 5 5
  1 neighbor lists, perpetual/occasional/extra = 1 0 0
  (1) pair lj/cut/coul/long, perpetual
      attributes: half, newton on
      pair build: half/bin/newton
      stencil: half/bin/3d/newton
      bin: standard
Per MPI rank memory allocation (min/avg/max) = 21.73 | 21.87 | 22.23 Mbytes
Step Time TotEng KinEng PotEng Temp Press Volume Density 
       0            0   -769.51728            0   -769.51728            0   -124.28966        42875   0.37818125 
    2000         2000    22.934644    561.89933   -538.96469    80.181021    124.49669    32676.619   0.49621171 
    4000         4000    1616.8254    1146.5376    470.28779    163.60681    372.69961     44656.41   0.36309504 
    6000         6000    1765.8657    1141.2229    624.64286    162.84842    426.32288    52415.188   0.30934776 
    8000         8000    1798.8913    1088.4122    710.47914    155.31252    -133.9578    58222.549   0.27849212 
   10000        10000    1869.6388    1125.4617    744.17703    160.59936    159.83043    59605.299   0.27203153 
   12000        12000    1846.6536    1114.0928    732.56075    158.97705    77.211164    55067.134   0.29445006 
   14000        14000    1758.9677    1077.4801    681.48752    153.75256   -336.53314    50318.448    0.3222381 
   16000        16000    1799.3255    1129.2219    670.10366    161.13591   -2.4439178    44775.449   0.36212973 
   18000        18000    1683.1388    1127.1712    555.96752     160.8433   -41.006864    38283.715   0.42353572 
   20000        20000    1668.5825    1153.3089    515.27358    164.57305    53.785836    32750.589   0.49509098 
   22000        22000     1512.758    1098.5667    414.19126    156.76154   -639.40151     29269.27   0.55397764 
   24000        24000    1505.1566    1147.9093     357.2473    163.80255    545.81596    26706.125   0.60714615 
   26000        26000    1438.5923    1122.8008    315.79154    160.21965    419.82307    25441.731   0.63731988 
   28000        28000    1414.1217    1135.3586    278.76309    162.01161    545.64854    24550.631   0.66045231 
   30000        30000    1445.9741    1115.5446    330.42949    159.18421    1323.8698    24430.291   0.66370559 
   32000        32000    1392.6111    1126.2785    266.33254    160.71591    608.87149    23894.491   0.67858824 
   34000        34000    1384.7247    1120.2269     264.4978    159.85237   -340.61992    23946.106   0.67712557 
   36000        36000    1369.5702    1105.7989    263.77127    157.79354    488.89345    23519.121   0.68941867 
   38000        38000    1378.0537    1137.1494    240.90435    162.26714    16.929485    23357.258   0.69419627 
   40000        40000    1406.9708    1162.5145    244.45634    165.88665    296.07356    23178.167   0.69956012 
   42000        42000    1366.3047    1138.3779    227.92683    162.44244    157.19745    23149.021   0.70044089 
   44000        44000    1358.7917    1142.8195    215.97223    163.07624    180.36304    23012.979   0.70458156 
   46000        46000    1350.4584    1112.3077    238.15071    158.72232   -672.65451     22994.07   0.70516097 
   48000        48000    1314.5743    1111.0487    203.52557    158.54267    557.30937    22577.317    0.7181775 
   50000        50000    1336.3067    1125.3156    210.99106    160.57851    772.75631    22501.099   0.72061017 
   52000        52000    1333.3438     1148.696    184.64784     163.9148    2284.8777    22485.598   0.72110696 
   54000        54000    1297.0454    1101.7744    195.27099    157.21926    603.43688     22534.71   0.71953536 
   56000        56000    1342.3399    1118.9933    223.34661    159.67633     1007.728    22512.212   0.72025445 
   58000        58000    1347.3107    1109.0811    238.22959     158.2619    15.436918    22431.123   0.72285819 
   60000        60000    1368.3647    1151.6503    216.71436    164.33637   -70.899722    22476.508   0.72139857 
   62000        62000    1309.3173     1081.712    227.60535    154.35642    380.34002    22555.765   0.71886372 
   64000        64000    1332.6787    1129.2863    203.39244    161.14511   -170.80432    22601.328   0.71741453 
   66000        66000    1338.9686    1116.0092    222.95947    159.25051    940.08673    22642.205   0.71611933 
   68000        68000    1292.3137    1076.7463    215.56731    153.64785    256.18473    22441.781   0.72251488 
   70000        70000    1333.0388     1124.142    208.89678    160.41104   -1207.6951    22339.286   0.72582987 
   72000        72000    1339.1703    1109.4089    229.76132    158.30868    620.73812    22500.478   0.72063005 
   74000        74000    1364.4667    1172.0673    192.39944    167.24981    237.66849    22332.273   0.72605779 
   76000        76000    1327.4248    1140.0551    187.36978    162.68177    46.395249    22402.427   0.72378411 
   78000        78000    1287.0535     1121.862    165.19147    160.08569    322.19853    22006.149   0.73681774 
   80000        80000     1290.514    1105.7184     184.7956    157.78205    413.50256     22413.18   0.72343689 
   82000        82000    1315.5071     1153.115     162.3921    164.54538    551.10955    22178.843   0.73108057 
   84000        84000    1310.7825    1112.6514     198.1311    158.77137    1265.5273    22443.022   0.72247495 
   86000        86000    1394.4241    1155.9389    238.48518    164.94834   -714.17799    22425.686   0.72303344 
   88000        88000    1334.7517    1131.5372    203.21456     161.4663   -19.864644    22234.444   0.72925236 
   90000        90000    1316.8447    1122.1783    194.66639    160.13082    868.56535    22068.972   0.73472028 
   92000        92000    1319.8824    1107.3805    212.50195    158.01923    564.71351    22406.084   0.72366599 
   94000        94000    1325.6453    1138.6178    187.02743    162.47669    624.82888     22355.17   0.72531413 
   96000        96000    1329.8347      1085.04    244.79467    154.83133   -341.19044    22609.644   0.71715066 
   98000        98000    1341.9723    1135.7273    206.24505    162.06421   -1357.2827    22251.301   0.72869992 
  100000       100000     1302.258    1132.9132    169.34483    161.66265   -415.64055     22401.34   0.72381924 
  102000       102000    1353.1485    1141.0995    212.04894    162.83081   -1456.3257    22381.528   0.72445995 
  104000       104000    1278.2023    1094.9979    183.20441    156.25227    221.37024    22129.499   0.73271072 
  106000       106000    1364.3805    1119.6707    244.70979    159.77299    705.95324    22278.543   0.72780887 
  108000       108000    1293.5212    1099.7239    193.79721    156.92667   -87.112394    22323.535   0.72634199 
  110000       110000     1327.072    1113.2563    213.81566    158.85769    1007.7882     21919.67   0.73972468 
  112000       112000    1313.6085    1124.9119    188.69653     160.5209   -406.12513    21996.869    0.7371286 
  114000       114000     1382.082    1172.5854    209.49659    167.32374    1362.6894    22309.667   0.72679349 
  116000       116000    1311.5077    1106.4757    205.03196    157.89012   -455.19719    22306.182   0.72690705 
  118000       118000    1284.4834    1094.9563    189.52713    156.24633   -683.34203    22133.189   0.73258856 
  120000       120000    1294.3318    1117.1112    177.22053    159.40777    1182.0525    22201.383   0.73033834 
  122000       122000     1306.837    1124.9748    181.86218    160.52987   -455.72459    22143.881   0.73223484 
  124000       124000    1345.7905    1129.5185    216.27202    161.17824    569.69936    22202.045   0.73031655 
  126000       126000    1337.8629    1146.1399    191.72299    163.55005   -820.28593    21969.486   0.73804737 
  128000       128000    1375.0816     1129.521    245.56063     161.1786    467.43318    22224.991   0.72956256 
  130000       130000    1313.9513    1120.0598    193.89143    159.82852   -561.62206    22093.966   0.73388911 
  132000       132000    1329.3502    1149.7063    179.64391    164.05897    182.52411    21995.444   0.73717635 
  134000       134000    1256.2564    1109.3784    146.87803    158.30432   -1060.0917    22257.106   0.72850985 
  136000       136000    1280.4263    1122.1831    158.24322    160.13151    391.65391     22015.08   0.73651882 
  138000       138000    1332.8652    1141.2706    191.59469    162.85522   -314.80582    22028.274   0.73607769 
  140000       140000    1304.0345     1109.628    194.40653    158.33993     544.9354    22197.602   0.73046272 
  142000       142000    1277.8697    1109.4611    168.40869    158.31612   -422.28698    21916.841   0.73982015 
  144000       144000    1299.1817       1105.1    194.08171    157.69381   -1012.1144     22075.34   0.73450833 
  146000       146000    1265.4457    1098.6122    166.83349    156.76803   -1679.8894     22113.51    0.7332405 
  148000       148000    1340.8837    1135.9656    204.91815    162.09821   -362.51741     22235.12   0.72923019 
  150000       150000    1335.1225    1124.0788     211.0437    160.40202   -888.02853    22275.201   0.72791807 
  152000       152000    1266.0652    1097.7608    168.30434    156.64654   -491.45209    22043.988   0.73555297 
  154000       154000     1308.604    1132.8094    175.79466    161.64784   -598.94575    22079.101    0.7343832 
  156000       156000    1248.2718    1084.2916    163.98017    154.72453   -738.10265    21858.891   0.74178151 
  158000       158000    1283.8192    1109.3429    174.47637    158.29925    494.26623    22028.373   0.73607438 
  160000       160000    1281.1126    1102.2049     178.9077    157.28069    222.08053    22046.344   0.73547436 
  162000       162000    1315.1108    1128.2876    186.82314     161.0026    901.95565    21959.275   0.73839053 
  164000       164000    1304.4062    1121.5912    182.81499    160.04705    467.41647    22178.234   0.73110064 
  166000       166000    1285.6435    1105.6567    179.98687    157.77324    -545.0328    21890.439   0.74071244 
  168000       168000    1290.6513    1119.0005    171.65078    159.67736   -869.55017    22022.011   0.73628701 
  170000       170000    1319.3559    1129.9187    189.43712    161.23536      101.496    22055.775   0.73515988 
  172000       172000    1261.2554    1090.0964      171.159    155.55284   -1638.6695    22123.257   0.73291744 
  174000       174000    1344.7615    1141.1392    203.62233    162.83648    207.13214    22004.327   0.73687876 
  176000       176000    1267.5622     1099.402    168.16018    156.88073    880.49653    22118.924   0.73306102 
  178000       178000    1306.5992     1121.145    185.45424    159.98337   -844.86595    22212.953   0.72995792 
  180000       180000      1287.99    1115.8659    172.12413    159.23006    395.61632     22324.53   0.72630963 
  182000       182000    1372.9446    1146.7819    226.16271    163.64167   -839.02277    22449.964   0.72225153 
  184000       184000     1332.903    1104.3736    228.52939    157.59016    161.75426     22162.37   0.73162395 
  186000       186000    1326.7117    1141.2295    185.48224    162.84936    593.00673    22045.076   0.73551669 
  188000       188000    1310.5519    1116.4365    194.11536    159.31149    1012.9587    22050.179   0.73534647 
  190000       190000    1294.0815    1118.6946    175.38689    159.63372   -428.46634    22048.293   0.73540937 
  192000       192000    1333.8168    1155.8873    177.92959    164.94097    1108.3945    22122.179   0.73295314 
  194000       194000    1328.0158    1138.5533    189.46245    162.46748   -804.79735     22054.21   0.73521206 
  196000       196000    1318.7113    1128.3586    190.35266    161.01273    310.87428    22109.846   0.73336199 
  198000       198000    1341.6722       1138.1    203.57218     162.4028   -332.85148    22420.709   0.72319396 
  200000       200000    1352.1268     1157.834    194.29276    165.21876    487.75007    22248.551   0.72878998 
  202000       202000    1282.8918    1108.4207    174.47101    158.16767    387.08186    22098.791   0.73372887 
  204000       204000    1340.0306    1154.3224    185.70826    164.71766   -396.64394    21917.943   0.73978295 
  206000       206000    1254.2709    1094.4862    159.78464    156.17926   -1019.1712    21813.458   0.74332647 
  208000       208000    1283.4249    1113.3178    170.10706    158.86646   -429.22376    21859.748   0.74175241 
  210000       210000    1309.5438    1127.1201    182.42372      160.836     926.4623    21725.105    0.7463495 
  212000       212000    1327.7445    1136.8698    190.87474    162.22724   -642.50463    21925.445   0.73952984 
  214000       214000    1310.1447    1126.0711    184.07359    160.68631    892.49567    22016.999   0.73645464 
  216000       216000    1259.8392    1076.6341     183.2051    153.63183   -81.126632    21938.815   0.73907917 
  218000       218000    1265.7883    1090.0567    175.73158    155.54719    44.261977     21932.54   0.73929061 
  220000       220000    1328.8351    1141.7352    187.09995    162.92152    320.66888    21975.268   0.73785316 
  222000       222000     1356.767    1134.0349    222.73213    161.82271    14.383063    22224.427   0.72958106 
  224000       224000    1293.7532    1104.8915    188.86168    157.66406   -204.73772    22230.502   0.72938168 
  226000       226000    1318.7218    1119.3083    199.41352    159.72128   -221.72177     22086.84   0.73412587 
  228000       228000    1310.9458    1121.8502     189.0956    160.08401    243.19773    22059.176   0.73504652 
  230000       230000    1271.8487    1090.4386    181.41007    155.60169   -396.41036    22255.857   0.72855074 
  232000       232000    1282.6099    1120.1472    162.46267    159.84099    139.33675    22316.553   0.72656924 
  234000       234000    1311.4411    1135.9396    175.50156    162.09451   -1289.1533    22304.146   0.72697341 
  236000       236000    1331.0139    1113.3446    217.66924    158.87029   -1148.1463    22366.311   0.72495286 
  238000       238000    1281.5518    1121.2363    160.31545    159.99641    461.59604    22114.231    0.7332166 
  240000       240000    1323.2627    1124.3105    198.95226    160.43508   -1942.6206    22243.786   0.72894611 
  242000       242000    1325.5641    1142.8433    182.72074    163.07965    222.87796    22184.718   0.73088695 
  244000       244000    1281.2038    1119.1468      162.057    159.69823   -27.150406    22119.398   0.73304531 
  246000       246000    1304.3042    1109.6733    194.63094     158.3464    957.01425    22130.848   0.73266605 
  248000       248000    1286.7153    1130.1186    156.59671    161.26387    308.54306    21957.523   0.73844945 
  250000       250000    1297.0308    1105.7413    191.28951    157.78532   -503.20977    22120.554   0.73300698 
  252000       252000    1255.7019    1120.0691    135.63278    159.82985    133.45696    21942.496   0.73895519 
  254000       254000    1326.4521    1125.7395     200.7126      160.639    750.86601      22258.8   0.72845439 
  256000       256000    1276.8769    1083.9457    192.93125    154.67517   -64.087729     22121.08   0.73298957 
  258000       258000      1306.91    1127.0333    179.87664    160.82362   -542.27358    22152.635   0.73194549 
  260000       260000    1343.6609    1138.5254     205.1355     162.4635   -494.51905    22399.257   0.72388655 
  262000       262000    1312.2725    1126.7506    185.52196    160.78327    152.98171    22047.658   0.73543054 
  264000       264000    1307.0865    1136.9027    170.18377    162.23194    507.77257    22212.665   0.72996738 
  266000       266000    1239.9534    1086.5184    153.43507    155.04228   -265.14517    21906.731   0.74016161 
  268000       268000    1270.0603    1084.7404     185.3199    154.78857    -1852.849    22509.666   0.72033592 
  270000       270000    1335.0674    1131.9866    203.08078    161.53043    14.397669    22194.761   0.73055623 
  272000       272000     1331.106    1137.4836    193.62242    162.31483   -709.25907    22004.157   0.73688444 
  274000       274000    1338.7183    1145.6268    193.09154    163.47684   -254.79463    21790.338   0.74411515 
  276000       276000    1284.7306     1106.118    178.61256    157.83908   -548.02872    22221.308   0.72968347 
  278000       278000    1346.6804    1134.0669    212.61354    161.82728   -831.10123    22173.417   0.73125944 
  280000       280000    1297.6531    1091.9376    205.71557    155.81558    902.33497     22049.94   0.73535443 
  282000       282000    1272.7084     1111.367    161.34139    158.58808    28.620986    22043.539   0.73556797 
  284000       284000    1296.0068    1116.9096    179.09713      159.379    618.22715    22048.171   0.73541341 
  286000       286000    1296.7756    1116.0577    180.71789    159.25744    503.04927    21965.405   0.73818448 
  288000       288000    1307.0756    1149.7294    157.34614    164.06227    1672.2925      22079.8   0.73435995 
  290000       290000    1289.9763    1096.4389    193.53748     156.4579    262.83068    22306.212   0.72690606 
  292000       292000    1276.1304    1100.3816    175.74886    157.02051     -1072.25    22089.208   0.73404717 
  294000       294000    1316.1816    1149.8162     166.3654    164.07465      393.728    22454.931   0.72209177 
  296000       296000    1317.3939    1124.9384    192.45547    160.52469    -284.8979    22151.444   0.73198483 
  298000       298000     1298.102    1091.0827    207.01928     155.6936   -388.37583    22214.081   0.72992085 
  300000       300000    1381.0337    1171.3181     209.7156     167.1429   -53.532327    22334.125    0.7259976 
  302000       302000    1290.6921    1088.4052    202.28686    155.31152   -1530.4462    22219.805   0.72973281 
  304000       304000    1366.5314    1165.0535    201.47797    166.24895    1003.9452    22291.686   0.72737976 
  306000       306000    1387.2968    1142.3482    244.94864    163.00899    949.58447    22177.672   0.73111915 
  308000       308000    1374.5004    1119.9906    254.50976    159.81865   -317.72377    22564.231   0.71859401 
  310000       310000    1327.0451    1113.2043    213.84077    158.85026    517.27275    22094.294    0.7338782 
  312000       312000    1260.0578    1100.6938      159.364    157.06506   -364.25318    21869.169   0.74143287 
  314000       314000    1354.0502    1153.8597    200.19052    164.65164    1823.2979    21845.268   0.74224408 
  316000       316000    1320.4806    1128.7745    191.70612    161.07207    862.39466    21885.842   0.74086805 
  318000       318000    1337.9945    1099.4794    238.51513    156.89177   -764.93775     22121.09   0.73298925 
  320000       320000    1309.7737    1160.4678     149.3059    165.59459    1649.0478    22038.513   0.73573572 
  322000       322000    1320.5876    1137.0235    183.56402    162.24919    92.556633    21848.058   0.74214928 
  324000       324000    1303.4302    1139.1202       164.31    162.54838     703.9762    22231.874   0.72933668 
  326000       326000     1305.808    1116.6386    189.16933    159.34033    302.03419     22071.45   0.73463778 
  328000       328000    1296.7246    1129.1693    167.55523    161.12842   -226.20755    22101.996   0.73362247 
  330000       330000     1346.837    1159.5193     187.3177    165.45926   -180.70162    22302.879   0.72701472 
  332000       332000    1296.3463     1118.718     177.6283    159.63704    701.09055    22167.265    0.7314624 
  334000       334000    1296.5513    1095.3258    201.22551    156.29906    310.24329    22042.518   0.73560201 
  336000       336000    1325.8995    1125.1031    200.79636    160.54819    490.34754    22146.613   0.73214451 
  338000       338000    1308.3327      1129.64    178.69276    161.19558    646.94282    22344.194   0.72567043 
  340000       340000    1276.4912     1107.996    168.49516    158.10706   -1923.4987    22225.065   0.72956013 
  342000       342000     1321.816    1126.4523    195.36366    160.74071   -1025.2411    22253.135   0.72863984 
  344000       344000    1344.6036    1128.5878    216.01577    161.04544    336.15575    22295.775   0.72724636 
  346000       346000     1299.709    1120.2772     179.4318    159.85954    21.104301    22285.692   0.72757539 
  348000       348000    1306.7159    1139.2113    167.50462    162.56137    144.77431    22179.724   0.73105152 
  350000       350000    1277.1471    1084.4092    192.73785    154.74131   -821.49561    22162.589   0.73161675 
  352000       352000    1338.7405    1137.6454    201.09507    162.33792      315.172    22177.962   0.73110958 
  354000       354000    1291.8175    1114.2658    177.55162    159.00174   -886.79276    22363.797   0.72503434 
  356000       356000    1338.1345    1126.2779    211.85665    160.71582   -1388.8771    22173.676   0.73125092 
  358000       358000    1276.3786    1106.4011    169.97747    157.87948    496.39191    22015.966   0.73648919 
  360000       360000    1324.4937    1108.4258    216.06784     158.1684    -59.13373    22201.125   0.73034682 
  362000       362000    1337.7579    1097.8817     239.8762    156.66379   -802.25549     22308.68   0.72682565 
  364000       364000    1287.3823    1098.7502    188.63202    156.78772   -1060.1177    22245.429   0.72889224 
  366000       366000    1317.9675    1115.3864    202.58114    159.16164   -676.79465    22165.358   0.73152534 
  368000       368000    1362.8751    1141.7029     221.1722    162.91691   -1261.2716     22364.06   0.72502582 
  370000       370000    1262.6741    1124.1025     138.5716    160.40541   -652.85274    21962.102    0.7382955 
  372000       372000    1283.5059    1111.4157    172.09023    158.59503   -402.49814    21962.342   0.73828741 
  374000       374000    1320.7484    1139.3765    181.37194    162.58494    694.97558    22087.072   0.73411817 
  376000       376000    1299.7371    1116.6952    183.04189     159.3484    1404.8276    22027.586   0.73610067 
  378000       378000    1285.4999    1112.6944    172.80557     158.7775     196.8713     21894.81   0.74056459 
  380000       380000    1326.0717    1151.8445    174.22718    164.36408   -281.56953    22028.431   0.73607244 
  382000       382000    1300.5257     1122.359    178.16671    160.15661    1853.8436    22016.956   0.73645608 
  384000       384000    1351.5354    1163.7387    187.79673    166.06134   -10.901254    22187.656   0.73079018 
  386000       386000    1313.5828    1127.2483    186.33448    160.85429   -272.53195    22321.665   0.72640284 
  388000       388000    1264.8983    1101.3892    163.50916    157.16429   -1154.2924    22000.289   0.73701401 
  390000       390000    1340.3943     1152.581    187.81328    164.46918   -1047.5535    21854.463   0.74193181 
  392000       392000    1254.2129    1090.7161    163.49674    155.64128   -155.23832    21842.676   0.74233215 
  394000       394000    1364.8891    1143.2202    221.66887    163.13343   -957.09295    21966.005   0.73816432 
  396000       396000    1242.6797    1099.5092    143.17043    156.89603   -419.77223    21843.318   0.74231036 
  398000       398000    1292.8772       1104.1    188.77723    157.55111    1682.4853    21827.748   0.74283984 
  400000       400000    1357.5694    1158.0924    199.47704    165.25563   -637.52518    22225.305   0.72955225 
  402000       402000    1290.3582    1102.7758    187.58246    157.36215   -190.72079    22243.713   0.72894847 
  404000       404000    1292.5659    1098.0629    194.50308    156.68964   -731.06029     22345.13   0.72564005 
  406000       406000     1324.955    1137.1467    187.80832    162.26676    2121.8514    21939.991   0.73903954 
  408000       408000    1319.5165    1129.6912    189.82532    161.20289   -592.53178    22025.405   0.73617357 
  410000       410000    1325.8833    1123.2959     202.5874     160.2903    319.33489    21970.877   0.73800062 
  412000       412000    1308.5671    1140.2218     168.3453    162.70556    982.36495    21902.124   0.74031727 
  414000       414000    1324.6497    1129.8283    194.82136    161.22246   -161.19849     22301.54   0.72705837 
  416000       416000     1331.006    1127.9779    203.02808     160.9584    189.68285    21922.755    0.7396206 
  418000       418000    1357.2029    1123.0458    234.15702    160.25462   -210.30068    22192.182   0.73064112 
  420000       420000    1329.1289    1114.2825    214.84645    159.00412    664.99165     22335.14   0.72596461 
  422000       422000    1294.9486    1120.9996    173.94902    159.96263   -862.52314    22090.568   0.73400199 
  424000       424000    1322.9393    1125.9268    197.01252    160.66572    1607.9018     21904.54   0.74023561 
  426000       426000    1316.2979    1115.0278    201.27005    159.11047   -276.16798    22138.651   0.73240781 
  428000       428000    1331.0855    1110.9375    220.14799    158.52681   -864.08037    22531.408   0.71964083 
  430000       430000    1310.0655    1121.4646    188.60095    160.02898   -2535.7202    22448.371   0.72230277 
  432000       432000    1351.2325    1114.6881    236.54436      159.062   -286.78752    22662.173   0.71548836 
  434000       434000    1338.4441    1111.2503    227.19389    158.57143   -358.13744    22422.785   0.72312698 
  436000       436000     1306.781    1125.5326     181.2484    160.60947   -1664.3845    22542.505   0.71928657 
  438000       438000    1319.0169     1091.164    227.85289     155.7052   -1229.1793    22218.946   0.72976102 
  440000       440000    1290.9767     1133.105    157.87175    161.69002    469.92282    22060.235   0.73501125 
  442000       442000    1343.7297    1151.0003    192.72942    164.24361    531.88513    21974.129   0.73789139 
  444000       444000    1304.8828     1129.683    175.19981    161.20172    2345.9144    22102.408   0.73360878 
  446000       446000    1322.0167    1121.0771    200.93968    159.97368    714.10533     22236.52   0.72918427 
  448000       448000    1336.2116    1145.6903    190.52126    163.48591   -659.53225    21994.494   0.73720818 
  450000       450000    1246.7415    1092.4932    154.24829    155.89486   -2064.5122    22043.329   0.73557498 
  452000       452000     1339.393    1141.8697    197.52327    162.94072    1271.4983    21866.477   0.74152417 
  454000       454000    1306.6591    1134.5244     172.1347    161.89257    278.99767    21898.935   0.74042508 
  456000       456000    1277.9332    1091.5977    186.33549    155.76708    369.79984    22047.202   0.73544573 
  458000       458000    1288.1694    1079.6886     208.4808    154.06769   -534.97927    22299.885   0.72711232 
  460000       460000    1281.7893    1091.7206    190.06872    155.78462    330.11758    22210.166   0.73004953 
  462000       462000     1343.081    1123.4629    219.61802    160.31414    157.78852    22027.938   0.73608892 
  464000       464000    1266.6179    1125.1669      141.451    160.55729   -808.11016    22104.768   0.73353049 
  466000       466000    1300.1601    1111.1223    189.03776    158.55317   -1035.8486    21893.532    0.7406078 
  468000       468000    1308.5422    1109.7817    198.76049    158.36187    37.252685    22009.319   0.73671162 
  470000       470000    1306.2842    1128.7671    177.51708    161.07102    1852.2186    21806.412   0.74356667 
  472000       472000    1354.4795    1125.1751    229.30438    160.55845    446.78835    22043.226   0.73557839 
  474000       474000    1324.2644     1104.678    219.58641     157.6336   -104.03332    22235.409   0.72922073 
  476000       476000    1296.1713    1114.4985    181.67273    159.03495   -691.22819    22324.338   0.72631587 
  478000       478000     1305.312    1122.1208    183.19119    160.12261   -675.93134    21963.693   0.73824202 
  480000       480000    1249.7955    1070.9521    178.84334    152.82103   -1049.6695    22275.863   0.72789641 
  482000       482000    1285.5419      1113.85    171.69187    158.94241   -734.00372    22128.483   0.73274435 
  484000       484000    1335.7027    1164.2827    171.42001    166.13896   -681.08903    21924.907   0.73954798 
  486000       486000    1285.9033    1112.3612     173.5421    158.72995   -562.49418    22150.622     0.732012 
  488000       488000    1305.4271    1121.5076    183.91949    160.03512   -1212.8947    21991.179   0.73731929 
  490000       490000    1276.3232    1111.2257    165.09749    158.56792    1765.3092    21929.201   0.73940317 
  492000       492000    1339.7927    1151.1287    188.66391    164.26195    361.74442      22225.5   0.72954583 
  494000       494000    1298.1195    1113.0822    185.03732    158.83284    728.53266    22105.106   0.73351925 
  496000       496000    1289.6244    1098.6533     190.9711    156.77389   -625.46166    21966.596   0.73814447 
  498000       498000    1287.3269    1099.3245    188.00234    156.86967    476.31642     22071.48   0.73463679 
  500000       500000    1293.6867    1132.2524    161.43428    161.56836    1022.9859     22056.94   0.73512104 
  502000       502000    1331.3996    1115.5029    215.89671    159.17826   -340.73647    22281.632   0.72770794 
  504000       504000    1347.9854    1129.7911    218.19429    161.21715    317.73626    22232.066   0.72933038 
  506000       506000    1298.7998    1152.0631    146.73674    164.39527     181.7077     21994.19   0.73721836 
  508000       508000    1328.9231    1117.7525    211.17059    159.49928   -522.39542    22187.767    0.7307865 
  510000       510000    1331.5178    1128.2966    203.22116    161.00389    -288.8942    22189.709   0.73072256 
  512000       512000      1245.91    1096.7364    149.17363    156.50035   -289.90002    21924.834   0.73955045 
  514000       514000    1362.6366    1163.5353    199.10136    166.03231    495.23789    22091.562   0.73396897 
  516000       516000    1256.1312     1107.712    148.41918    158.06653    492.39289    21867.931   0.74147484 
  518000       518000    1290.6209    1130.9838    159.63705    161.38734   -1272.3594    21837.387   0.74251195 
  520000       520000    1354.4652    1155.0727    199.39253    164.82473    424.47353     22171.04   0.73133787 
  522000       522000    1280.2376    1115.1479    165.08972    159.12761    -208.0113    22256.238   0.72853826 
  524000       524000    1275.2786     1120.271    155.00762    159.85866   -228.48865    21996.736   0.73713303 
  526000       526000    1299.4465    1141.8888    157.55765    162.94345   -820.26151    21846.903   0.74218853 
  528000       528000    1338.1378    1144.1149    194.02282     163.2611    273.48704    21943.082   0.73893543 
  530000       530000    1338.0939    1109.9193    228.17463     158.3815    29.879903    22137.288   0.73245289 
  532000       532000    1324.2324    1130.7935     193.4389    161.36017   -805.97593    22254.231   0.72860397 
  534000       534000     1312.297    1129.3919    182.90508    161.16018     73.86915    22130.471   0.73267853 
  536000       536000    1311.9973    1138.9414    173.05587    162.52286    457.89514    22217.096   0.72982181 
  538000       538000    1302.8003    1107.6752    195.12515    158.06128    805.39034     22173.92   0.73124286 
  540000       540000    1311.8919     1122.561    189.33083    160.18544    1130.6202    22314.497   0.72663619 
  542000       542000    1346.0737    1156.3072    189.76656    165.00089   -59.420604    22214.651   0.72990211 
  544000       544000    1318.7675    1121.0201    197.74739    159.96555   -1169.3576    22230.143   0.72939346 
  546000       546000    1318.1594    1146.1482    172.01119    163.55124    1103.8914    22212.732   0.72996519 
  548000       548000    1351.7646    1117.8211    233.94357    159.50906   -210.95927    22423.894   0.72309122 
  550000       550000      1295.55    1084.9255    210.62443    154.81499    496.23776    22193.388   0.73060142 
  552000       552000    1300.7862    1136.6012    164.18496    162.18892   -1052.3023    22333.084   0.72603144 
  554000       554000    1346.6043    1133.5157    213.08862    161.74863    1001.5595    22377.283   0.72459739 
  556000       556000    1308.4484    1122.1937     186.2547    160.13303    74.857532     22239.13    0.7290987 
  558000       558000    1327.3351    1129.3113    198.02374    161.14868    507.13523     21998.99   0.73705753 
  560000       560000    1368.7097    1139.3228    229.38691    162.57728    1325.8358    22180.842   0.73101468 
  562000       562000    1306.4756    1124.0474    182.42815    160.39754    191.62283    22080.778   0.73432744 
  564000       564000    1313.2862     1117.824    195.46219    159.50948    10.234145     22224.63    0.7295744 
  566000       566000    1286.4325    1112.4033    174.02923    158.73597    1189.2045    22080.737   0.73432881 
  568000       568000    1303.8577    1131.9086    171.94907     161.5193    346.77238    22229.628   0.72941037 
  570000       570000    1307.0578    1129.3027    177.75514    161.14744    876.55153    21979.884   0.73769819 
  572000       572000     1295.914    1110.8376    185.07637    158.51255   -445.69898    21828.843   0.74280258 
  574000       574000    1339.1293    1146.3493    192.77999    163.57994     300.2578    22166.565   0.73148549 
  576000       576000    1297.1875    1116.2487    180.93881    159.28469   -1390.1182    22363.971   0.72502871 
  578000       578000    1362.8836    1133.4383    229.44523    161.73759    -1515.637    22202.586   0.73029877 
  580000       580000    1323.4865    1121.7375    201.74896    160.06793    316.53193    22237.548   0.72915057 
  582000       582000    1319.4992    1111.0088    208.49042    158.53697   -618.65458      22223.6   0.72960822 
  584000       584000    1306.3216    1102.4726      203.849    157.31888   -241.64805    22454.112    0.7221181 
  586000       586000    1310.4192    1075.0916    235.32756    153.41173   -489.40451    22513.565   0.72021116 
  588000       588000    1312.0163    1134.7913    177.22495    161.93066    1182.4686    21955.352   0.73852248 
  590000       590000     1283.432    1105.1048    178.32717     157.6945   -229.30239    22040.249   0.73567775 
  592000       592000    1306.9432    1124.4628    182.48041    160.45681    785.69523    21965.716   0.73817403 
  594000       594000    1349.3061    1131.5776    217.72844    161.47207    662.07829    21633.035   0.74952595 
  596000       596000    1293.1228    1106.6314     186.4914    157.91234   -252.85785     21986.64   0.73747154 
  598000       598000    1309.5227    1113.7015    195.82115    158.92121     -3092.31     22233.62   0.72927939 
  600000       600000    1310.2347    1143.4301    166.80457    163.16338   -2.1231427    21808.989   0.74347881 
  602000       602000    1322.4986    1115.5894     206.9092    159.19062    546.91981    22171.163   0.73133381 
  604000       604000     1320.427    1144.5628    175.86423    163.32501   -231.25117     21903.56   0.74026876 
  606000       606000    1285.3282    1100.3572    184.97093    157.01703   -1180.1319    22007.578   0.73676988 
  608000       608000    1306.1179    1155.5094    150.60844    164.88706    1061.8151    21786.632   0.74424175 
  610000       610000    1281.9875     1097.005    184.98249    156.53868    306.31847    21861.443    0.7416949 
  612000       612000     1272.535    1127.6431    144.89185    160.91063   -879.40046    21894.262   0.74058313 
  614000       614000    1290.2903    1134.2206     156.0697    161.84922    27.124026    21780.392   0.74445498 
  616000       616000    1306.4115     1114.176    192.23546    158.98893   -827.01629    22006.339   0.73681136 
  618000       618000    1290.6028     1146.719    143.88384    163.63269    975.60492    21955.272   0.73852518 
  620000       620000    1277.5611    1113.2101    164.35098    158.85109   -1499.1761    21929.508   0.73939281 
  622000       622000    1297.2078    1138.8763    158.33149    162.51357   -710.36643    21942.889   0.73894194 
  624000       624000    1315.6662    1122.2451    193.42115    160.14035    158.28039    21933.101   0.73927172 
  626000       626000     1294.998    1132.1782     162.8198    161.55778   -844.60458     21776.88   0.74457504 
  628000       628000    1301.6583    1100.7961    200.86211    157.07967   -1536.2869    22084.342   0.73420891 
  630000       630000    1281.9223    1101.3902    180.53213    157.16443   -529.41484    21940.207   0.73903228 
  632000       632000     1384.352    1155.1952    229.15685    164.84221    722.17666     22277.49   0.72784324 
  634000       634000    1311.1842     1094.293    216.89111     156.1517     169.8509    22117.692   0.73310186 
  636000       636000    1280.2304     1125.447    154.78333    160.59726    49.405024    21907.715   0.74012834 
  638000       638000    1291.4064    1106.1297    185.27675    157.84074   -827.18137    22153.164   0.73192801 
  640000       640000    1316.1618    1135.3851     180.7767    162.01539   -221.60515     22211.98    0.7299899 
  642000       642000    1291.4565    1120.9356    170.52092     159.9535    502.30045     21860.98   0.74171062 
  644000       644000    1278.8171    1120.1956    158.62151    159.84789    894.48956    22065.628   0.73483163 
  646000       646000    1345.3278    1146.4698    198.85807    163.59713    27.196122    22178.465   0.73109303 
  648000       648000     1302.381     1118.509    183.87199    159.60723    610.06947    22025.101   0.73618373 
  650000       650000    1336.5688    1137.1137     199.4551    162.26205   -333.64236    22145.489   0.73218167 
  652000       652000    1306.9932    1115.3611    191.63204    159.15804   -691.52992    22134.589   0.73254221 
  654000       654000    1344.3263    1114.0767    230.24957    158.97476   -1340.2598    22370.533   0.72481603 
  656000       656000      1271.02    1110.1316    160.88839     158.4118    631.30625     21956.23   0.73849293 
  658000       658000    1346.0582    1132.2324    213.82587     161.5655   -564.18094    21937.841   0.73911197 
  660000       660000    1302.8168    1113.3374     189.4794    158.86926     335.8194    22074.091   0.73454987 
  662000       662000    1316.5289    1129.1542    187.37463    161.12626    364.47903    21938.949   0.73907464 
  664000       664000    1360.4645    1151.2515    209.21301    164.27946   -960.50175    22120.404   0.73301196 
  666000       666000    1312.0967    1109.4866    202.61006    158.31976     802.0324    22140.039    0.7323619 
  668000       668000    1332.9135    1110.4135    222.49994    158.45203   -1126.4403    22148.463   0.73208333 
  670000       670000    1291.4239    1113.6772    177.74672    158.91775   -221.41407    22208.097   0.73011752 
  672000       672000    1315.9983    1117.0587    198.93963    159.40028    173.59692    22099.233    0.7337142 
  674000       674000    1294.4859    1109.7107    184.77522    158.35174   -741.55935    22096.395   0.73380842 
  676000       676000    1271.3691    1108.6908     162.6783     158.2062   -560.68692    22084.172   0.73421456 
  678000       678000    1296.9222    1097.3582    199.56403    156.58908   -267.64058    22233.345   0.72928842 
  680000       680000    1295.2013    1088.1829    207.01831    155.27981    1067.7556     22083.41   0.73423989 
  682000       682000    1311.7716    1141.1629    170.60869    162.83985     94.25728    22101.428   0.73364132 
  684000       684000    1281.2047      1115.83    165.37478    159.22494   -128.53232    21985.306   0.73751628 
  686000       686000    1318.3797    1109.2515    209.12817    158.28621   -949.10656    22135.169   0.73252302 
  688000       688000    1297.2653    1122.8488    174.41649    160.22651   -662.32067     22086.29   0.73414416 
  690000       690000    1306.2757    1124.1046    182.17115    160.40569    -979.8208    21966.094   0.73816133 
  692000       692000    1286.9524    1121.8407    165.11161    160.08265   -1198.2369    22224.296   0.72958536 
  694000       694000    1306.6408    1107.4829    199.15795    158.03384   -608.21978    22015.553   0.73650301 
  696000       696000    1308.9907    1096.5548    212.43595    156.47443   -884.88907    22034.768   0.73586074 
  698000       698000    1329.1537    1135.7677    193.38606    162.06998    876.26725    22201.972   0.73031896 
  700000       700000    1301.6364    1106.0372    195.59914    157.82755   -706.06599    22235.776   0.72920869 
  702000       702000     1310.373    1127.4131    182.95987    160.87781     1049.814    21937.746   0.73911518 
  704000       704000    1301.0007    1104.1363    196.86441     157.5563   -424.64995    21823.731   0.74297656 
  706000       706000    1313.5215    1138.1716    175.34989    162.41301   -607.91556    22159.903   0.73170542 
  708000       708000     1299.346    1121.0599    178.28604    159.97124    1579.7942    21659.162    0.7486218 
  710000       710000    1248.8134    1114.9448     133.8686    159.09863    1090.6072    21793.715   0.74399987 
  712000       712000    1342.2771     1167.888     174.3891    166.65343    -1276.549    21777.636   0.74454917 
  714000       714000    1335.3478     1130.403    204.94485    161.30446     264.9011    21851.279   0.74203989 
  716000       716000    1242.5961    1101.3222    141.27392    157.15473   -545.88445    21914.088   0.73991311 
  718000       718000    1341.2343    1135.5075    205.72678    162.03286   -480.76662    22094.244   0.73387986 
  720000       720000    1287.2606    1106.6641    180.59656      157.917    2014.8097    22082.051   0.73428508 
  722000       722000    1298.8617    1143.8018    155.05996    163.21641   -1283.9833        22146   0.73216475 
  724000       724000    1356.1126    1168.8622    187.25047    166.79245    1068.0365     21856.37   0.74186705 
  726000       726000     1307.518    1141.8493    165.66869     162.9378   -592.52069    22013.517   0.73657114 
  728000       728000    1295.3762    1129.1859    166.19028    161.13078   -998.21568    22103.906   0.73355909 
  730000       730000    1312.1743    1137.6441     174.5302    162.33773   -1051.9349     22098.12   0.73375115 
  732000       732000    1332.8439     1124.963    207.88088    160.52819   -646.77024    22231.883   0.72933637 
  734000       734000     1300.288    1151.6537    148.63426    164.33686    219.78352    21998.274   0.73708151 
  736000       736000    1282.0656    1111.3032    170.76239    158.57899    636.90622    21792.385   0.74404527 
  738000       738000    1311.0791    1127.5672    183.51192    160.89979   -197.03976    22035.143   0.73584823 
  740000       740000    1292.6012    1115.7719    176.82928    159.21665    494.93396     21938.19   0.73910023 
  742000       742000    1274.3512    1105.2117     169.1395    157.70975   -1503.8281     21936.16    0.7391686 
  744000       744000    1320.0275     1122.861     197.1665    160.22825    700.03369     22154.73   0.73187627 
  746000       746000     1366.299    1160.8705    205.42849    165.65206    190.36736    22065.587   0.73483298 
  748000       748000    1277.8838    1093.7506    184.13317    156.07429    315.18257     21860.61   0.74172315 
  750000       750000    1306.9403    1095.6421    211.29819     156.3442   -936.03494    22163.314   0.73159279 
  752000       752000    1271.9121    1098.6997    173.21245    156.78051   -1466.3224    21953.667   0.73857917 
  754000       754000    1311.7858    1145.1608    166.62501    163.41035    181.43121    22262.669    0.7283278 
  756000       756000    1261.4902    1104.5559    156.93429    157.61617   -662.34818    22208.525   0.73010345 
  758000       758000    1331.9181    1136.8545    195.06358    162.22507    297.82456    22343.005   0.72570906 
  760000       760000    1342.2304    1123.8555    218.37487    160.37016   -116.02206     22300.54   0.72709095 
  762000       762000    1293.1872    1113.3037    179.88349    158.86444    444.77164    22036.605    0.7357994 
  764000       764000    1312.3322    1106.2145    206.11776    157.85284     198.7614    22250.734   0.72871849 
  766000       766000    1281.2711    1121.0322    160.23895    159.96727   -88.307465    21935.163   0.73920222 
  768000       768000    1296.1458    1113.3029    182.84293    158.86433    9.5825319    22158.834   0.73174073 
  770000       770000    1318.4123    1146.7625    171.64981     163.6389    900.42943    22260.241   0.72840726 
  772000       772000    1341.3563    1140.1303      201.226    162.69251   -900.32513    22450.323   0.72223998 
  774000       774000      1297.48    1088.0155    209.46458    155.25591    170.98927    22265.455   0.72823668 
  776000       776000     1296.975    1110.0901    186.88497    158.40587    122.35744    22085.641   0.73416572 
  778000       778000     1323.227    1123.6421    199.58493     160.3397    799.22453    22044.405   0.73553905 
  780000       780000    1342.9905    1153.2281    189.76247    164.56151    341.50662    22047.975   0.73541996 
  782000       782000    1305.6533    1148.4089    157.24435    163.87384    14.323642    21968.358   0.73808524 
  784000       784000    1327.6009    1143.6296    183.97137    163.19184   -1104.6311    22141.714    0.7323065 
  786000       786000    1308.2054    1133.5977    174.60768    161.76033   -36.121248    21993.126   0.73725402 
  788000       788000    1287.9352    1130.9023    157.03291     161.3757    467.51844    21846.442   0.74220419 
  790000       790000     1304.356    1134.4889    169.86713     161.8875    2292.5051    21728.303   0.74623963 
  792000       792000    1289.8509    1113.2566    176.59434    158.85773   -956.22961    21977.784   0.73776868 
  794000       794000      1271.41    1121.4393    149.97075    160.02536    1447.6489    21979.624   0.73770694 
  796000       796000    1358.3224    1129.4032    228.91912     161.1618   -337.75953    21950.331   0.73869141 
  798000       798000    1347.7159    1137.0374    210.67845    162.25117   -289.94683    22386.206   0.72430856 
  800000       800000    1280.2856     1131.927    148.35857    161.52193    260.20793    22083.532   0.73423587 
  802000       802000    1333.2723    1116.5509    216.72141    159.32781   -344.27907    22129.702   0.73270399 
  804000       804000    1337.5814    1121.7825    215.79888    160.07435   -16.717648    22297.861   0.72717832 
  806000       806000    1243.5974    1094.4246    149.17279    156.17047    2130.2068    21964.589    0.7382119 
  808000       808000    1338.0807    1148.5443    189.53635    163.89316    472.86092    21782.362   0.74438764 
  810000       810000    1302.5436    1128.6047    173.93887    161.04785   -96.208515    21952.868   0.73860603 
  812000       812000    1303.7958    1099.5898    204.20595    156.90753    702.33024    21891.402   0.74067989 
  814000       814000    1260.5176     1116.964    143.55357    159.38676   -461.76078    22110.248   0.73334865 
  816000       816000    1347.0673    1131.1333    215.93399    161.40867    175.75268    22097.702   0.73376503 
  818000       818000    1301.4241    1119.0454    182.37871    159.68377    271.67354    22119.758   0.73303338 
  820000       820000    1296.4249    1137.6052    158.81974    162.33218    407.79535    22032.844   0.73592502 
  822000       822000    1323.0427    1123.0568    199.98589    160.25618   -567.37344    22016.244    0.7364799 
  824000       824000    1280.9419     1104.813    176.12892    157.65286    740.65154    22264.179    0.7282784 
  826000       826000    1282.4816    1094.4097     188.0719    156.16835   -1539.5502     22092.03   0.73395342 
  828000       828000    1279.2525    1128.3281    150.92436    161.00838   -288.51188    22127.271   0.73278447 
  830000       830000    1341.4182    1132.7115    208.70669    161.63388   -196.19986    22126.012   0.73282619 
  832000       832000    1293.3436    1118.6553    174.68832     159.6281    533.52352    21849.995    0.7420835 
  834000       834000    1314.4547    1122.6996    191.75507    160.20521   -898.72887    21899.641   0.74040122 
  836000       836000     1248.696    1058.0355    190.66047    150.97788    1638.8857    22081.565   0.73430127 
  838000       838000    1309.1676    1115.5671    193.60052    159.18742    230.05814    22228.407   0.72945044 
  840000       840000    1343.2609    1123.7138    219.54707    160.34994   -71.394663    22222.842    0.7296331 
  842000       842000    1361.5966    1143.8579    217.73876    163.22442    61.478855    22144.944   0.73219968 
  844000       844000    1301.3181    1134.5055    166.81255    161.88987     444.1616    22028.644   0.73606531 
  846000       846000    1386.6616    1169.7205    216.94108    166.91493   -89.599652    22215.285   0.72988128 
  848000       848000    1307.6831    1144.2633    163.41973    163.28228     362.1714    22126.996    0.7327936 
  850000       850000    1272.4867     1097.924    174.56265    156.66983   -642.23355    21911.768   0.73999146 
  852000       852000    1323.5778    1134.9469    188.63094    161.95285    11.318667    22084.511   0.73420331 
  854000       854000    1351.5799     1141.893    209.68694    162.94403   -10.379099    22212.965   0.72995754 
  856000       856000    1341.2634    1124.8881    216.37537     160.5175   -3.9702207    22204.994   0.73021957 
  858000       858000    1281.8442    1115.1721     166.6721    159.13106   -1098.6233      21902.2    0.7403147 
  860000       860000    1310.1322    1142.4373    167.69488    163.02171   -950.23122    21797.123   0.74388353 
  862000       862000    1333.2352    1141.5193     191.7159    162.89071    596.87833    22029.437   0.73603883 
  864000       864000    1295.9234    1105.3001    190.62332    157.72236   -833.69809    22029.646   0.73603184 
  866000       866000    1308.9258    1121.5191    187.40661    160.03676    985.07583    22012.093   0.73661876 
  868000       868000    1286.0323    1103.9919    182.04032    157.53569    1037.0649    22109.507   0.73337326 
  870000       870000    1354.2328    1143.5756    210.65718    163.18415    78.870362    22440.348   0.72256102 
  872000       872000    1339.1628    1136.3491    202.81377    162.15294   -1336.0913    22110.543   0.73333888 
  874000       874000    1303.4694    1103.4278    200.04167    157.45519   -409.26161    22004.961    0.7368575 
  876000       876000    1314.9551    1140.6112    174.34391    162.76113    170.30931    22226.617   0.72950917 
  878000       878000    1358.0833    1144.8017    213.28157     163.3591    378.45787    22150.324   0.73202185 
  880000       880000    1305.5766    1116.8983    188.67832    159.37738    1485.9061    21701.061   0.74717643 
  882000       882000    1307.8514    1136.5602    171.29116    162.18307   -24.465005    22160.693   0.73167932 
  884000       884000    1276.4545    1124.4376    152.01694    160.45321    905.48203     22025.63   0.73616605 
  886000       886000      1296.41    1137.7662    158.64386    162.35516    2180.5838    21885.387   0.74088343 
  888000       888000    1279.6886    1106.0289    173.65974    157.82636   -5.7533674     21940.74    0.7390143 
  890000       890000     1309.362    1120.8554    188.50658    159.94205    567.82885    21694.191   0.74741304 
  892000       892000    1241.3196    1108.0618    133.25781    158.11645   -313.91417    21801.404   0.74373746 
  894000       894000    1292.3411    1094.5837    197.75737    156.19318    1544.1572    21967.232   0.73812308 
  896000       896000    1282.4798    1128.5217    153.95815      161.036    336.56141    22163.018   0.73160256 
  898000       898000    1271.5958    1120.7377    150.85811    159.92525   -29.636396    22149.564   0.73204697 
  900000       900000    1307.0239    1099.0708    207.95304    156.83347   -1002.7429    22152.467   0.73195103 
  902000       902000    1350.1223    1154.5092    195.61312    164.74433    81.507428    22264.077   0.72828173 
  904000       904000    1345.4062    1136.5804    208.82586    162.18595   -362.22326    22260.111   0.72841151 
  906000       906000    1254.6179    1084.3693    170.24859    154.73561    238.79084    22114.622   0.73320362 
  908000       908000    1333.5071    1131.4093    202.09788    161.44805   -1031.0295    22023.893   0.73622411 
  910000       910000     1356.583    1120.7726    235.81038    159.93023   -75.496993    21994.287   0.73721513 
  912000       912000    1354.5274    1155.9887    198.53874    164.95544    346.88771    21888.099   0.74079166 
  914000       914000    1347.2837    1131.4941    215.78957    161.46016      1144.34    21992.048   0.73729018 
  916000       916000    1322.8399    1123.1657    199.67424    160.27172    443.13636    22104.106   0.73355244 
  918000       918000    1283.3327    1100.6459     182.6868    157.05823    24.436934    22027.167   0.73611468 
  920000       920000    1314.8514     1124.276    190.57537    160.43016     210.8881    22115.779   0.73316526 
  922000       922000    1312.6483    1128.1598     184.4885    160.98436   -53.916373    22171.547   0.73132112 
  924000       924000    1316.7777    1132.6547    184.12296    161.62577    154.95124    22237.223   0.72916123 
  926000       926000    1331.6014    1133.0843    198.51707    161.68707    1337.7212    22039.179   0.73571347 
  928000       928000    1302.2796    1109.1553    193.12429    158.27249    271.79704    22155.807   0.73184068 
  930000       930000    1328.0337    1102.1652    225.86843    157.27503   -64.576984    22334.424   0.72598789 
  932000       932000    1298.3385     1093.357    204.98147    156.01813   -5.4780384    21970.749   0.73800493 
  934000       934000    1273.7301    1101.7385    171.99162    157.21414   -1970.0469    22128.912   0.73273016 
  936000       936000    1321.0378     1157.369    163.66889     165.1524    -349.0606    22028.332   0.73607574 
  938000       938000    1245.7479    1100.3249    145.42298    157.01243   -885.38863    21824.493   0.74295063 
  940000       940000    1262.6114    1092.7982    169.81321    155.93839   -1116.8016    21655.846   0.74873643 
  942000       942000     1269.348    1091.2672    178.08082    155.71992    182.09886    21861.066    0.7417077 
  944000       944000    1320.7642    1135.9951     184.7691    162.10243    159.26919    21967.572   0.73811167 
  946000       946000    1314.7664    1108.3588    206.40759    158.15883   -430.50041    21977.045   0.73779351 
  948000       948000    1285.4783    1095.0979    190.38034    156.26655    201.76497    22165.131   0.73153283 
  950000       950000    1329.6678     1146.485    183.18286     163.5993    1729.0711    22243.401   0.72895873 
  952000       952000    1294.5491    1146.4806    148.06852    163.59868   -176.98519    22178.103   0.73110495 
  954000       954000    1335.6297    1161.5506    174.07911    165.74911   -1403.1806    22058.191   0.73507937 
  956000       956000     1315.642    1122.0521    193.58994    160.11281    55.262148    22185.777   0.73085207 
  958000       958000    1285.9493    1137.5068    148.44259    162.31814    1340.0016    21909.163   0.74007944 
  960000       960000    1314.2252    1122.5147    191.71048    160.17883    162.01993    22164.978   0.73153789 
  962000       962000    1279.8782    1136.8981    142.98015    162.23128    986.89915     22105.33   0.73351183 
  964000       964000    1335.9219    1123.5154    212.40643    160.32163   -147.05761     22285.79   0.72757219 
  966000       966000    1299.5613    1114.8855    184.67583    159.09017    136.35794    22084.335   0.73420916 
  968000       968000    1342.7303     1124.655    218.07534    160.48424   -7.3871686    22202.321   0.73030749 
  970000       970000    1294.0205    1104.0813    189.93921    157.54844    -612.3981     21879.35   0.74108786 
  972000       972000    1302.4685    1112.7219    189.74659    158.78143    425.79693    22009.515   0.73670504 
  974000       974000    1311.1372     1126.122    185.01516    160.69358    2014.7496    21893.835   0.74059756 
  976000       976000     1303.001    1127.3496     175.6514    160.86874    668.96378    22117.366   0.73311266 
  978000       978000    1334.0667     1109.538    224.52873     158.3271    642.39578     22472.25   0.72153525 
  980000       980000    1351.8922    1128.6308    223.26147    161.05157    636.84824    22134.859   0.73253328 
  982000       982000    1262.7076    1126.9613     135.7463    160.81334    1241.7159    21672.982   0.74814442 
  984000       984000     1260.015    1090.3419    169.67313    155.58788      102.887    22097.858   0.73375985 
  986000       986000    1342.7261    1131.1956    211.53053    161.41756   -1079.9059    22188.694   0.73075597 
  988000       988000    1312.4275    1108.7035    203.72398    158.20802    253.02424    22178.438   0.73109391 
  990000       990000    1342.1408    1129.5224    212.61838     161.1788   -52.900377    22544.914   0.71920971 
  992000       992000    1315.5834    1104.8998    210.68365    157.66524   -753.57184    22247.778   0.72881529 
  994000       994000     1271.256    1095.7619    175.49405     156.3613   -443.89863    22225.096   0.72955911 
  996000       996000    1357.4442    1147.7619    209.68231    163.78151   -611.98691    22111.806   0.73329701 
  998000       998000    1332.0161    1144.6465    187.36955    163.33696   -262.23484    21943.897   0.73890799 
 1000000      1000000    1271.7716    1121.5899    150.18167    160.04686    355.88098    21977.117   0.73779109 
 1002000      1002000    1322.6785    1129.5915      193.087    161.18866    1088.2564    21906.291   0.74017647 
 1004000      1004000    1290.6439    1100.2678    190.37603    157.00428    1413.9053    22128.565   0.73274163 
 1006000      1006000      1325.21    1138.0834    187.12669    162.40042    211.14997    22168.876   0.73140924 
 1008000      1008000    1294.4239    1102.3829    192.04099     157.3061    1689.4475    22065.486   0.73483634 
 1010000      1010000    1314.0722    1102.8742    211.19797     157.3762   -488.89368    22126.867   0.73279786 
 1012000      1012000    1346.4835    1126.4692    220.01433    160.74312    61.138984    22090.935   0.73398979 
 1014000      1014000    1266.0274    1127.9297    138.09768    160.95153    46.630709    21768.365   0.74486626 
 1016000      1016000    1298.4673    1137.2749    161.19248    162.28505    1307.0319    21992.397   0.73727849 
 1018000      1018000    1286.6314    1116.1861    170.44529    159.27576    365.91857    22132.438    0.7326134 
 1020000      1020000    1268.3629    1081.2367    187.12616     154.2886   -813.34939     22020.73   0.73632987 
 1022000      1022000    1306.3382      1114.14    192.19819    158.98378    852.18833     22120.98   0.73299289 
 1024000      1024000    1296.0699    1127.9587    168.11122    160.95566    112.75958    21984.967   0.73752766 
 1026000      1026000    1310.6733    1162.5672    148.10606    165.89417     1305.114    21984.834    0.7375321 
 1028000      1028000    1299.9176    1142.1465    157.77114    162.98021    107.76457    22051.352   0.73530734 
 1030000      1030000    1320.6962    1121.0042    199.69202    159.96328    477.58067    22047.133   0.73544804 
 1032000      1032000    1284.7948     1101.242    183.55281    157.14329   -207.73751    22141.933   0.73229926 
 1034000      1034000    1310.0937    1118.9864    191.10728    159.67535      1098.45    22045.465    0.7355037 
 1036000      1036000    1304.3059     1124.277    180.02885    160.43031    535.10525    22070.219   0.73467876 
 1038000      1038000    1268.7806    1123.1917    145.58895    160.27542    668.37034    21982.479   0.73761113 
 1040000      1040000    1355.9711    1154.7006    201.27043    164.77165    667.05947    22126.975    0.7327943 
 1042000      1042000    1317.1906    1110.4052    206.78538    158.45085    223.42129    22175.189   0.73120104 
 1044000      1044000    1308.1682      1123.18    184.98825    160.27375    410.22841    22448.518   0.72229804 
 1046000      1046000    1286.2644    1119.8438    166.42054     159.7977   -721.93523    22284.708   0.72760752 
 1048000      1048000    1305.3696    1109.8712     195.4984    158.37465    181.81636    22388.468   0.72423539 
 1050000      1050000    1287.7377    1103.2092    184.52857    157.42399   -1403.5766    22203.756   0.73026029 
 1052000      1052000    1299.3832    1122.7381    176.64508     160.2107   -379.14424     22071.84   0.73462479 
 1054000      1054000    1254.0213    1110.3912    143.63008    158.44885    223.56751     21763.44   0.74503484 
 1056000      1056000    1293.8748    1116.5351    177.33969    159.32556   -314.13275     22030.92    0.7359893 
 1058000      1058000    1326.6279    1132.3886    194.23925     161.5878   -567.54377    22216.476   0.72984216 
 1060000      1060000    1284.1552    1096.5514    187.60384    156.47395    1266.5981    21817.008   0.74320553 
 1062000      1062000    1309.1442    1115.8855    193.25869    159.23286   -340.36768     22161.02   0.73166852 
 1064000      1064000    1317.9337    1108.5536    209.38011    158.18662    653.58494    22350.959   0.72545078 
 1066000      1066000    1307.3193    1119.6084    187.71087    159.76411    421.82706    22104.835   0.73352826 
 1068000      1068000     1328.198    1112.8897    215.30831    158.80537    909.61595    22056.997   0.73511914 
 1070000      1070000    1288.2741     1104.664    183.61017    157.63159   -143.30617    22063.543   0.73490103 
 1072000      1072000    1299.5446    1130.0685    169.47608    161.25673    606.91842    22003.975   0.73689055 
 1074000      1074000    1343.7134    1121.8019    221.91144    160.07711   -70.566757    22032.779   0.73592716 
 1076000      1076000    1329.2399    1132.1445    197.09534    161.55297    1118.9402    21930.585   0.73935651 
 1078000      1078000    1285.0959    1132.1835    152.91243    161.55853   -1718.0802    22093.059   0.73391922 
 1080000      1080000    1301.9425    1102.3027    199.63984    157.29465   -1788.8447    22150.506   0.73201581 
 1082000      1082000    1346.6024    1161.0692    185.53323    165.68041    681.24702    22137.037   0.73246121 
 1084000      1084000    1268.1815    1123.8255    144.35606    160.36587    1472.8502    21920.716   0.73968938 
 1086000      1086000      1267.68    1129.3881    138.29191    161.15964    2018.9043    21669.291   0.74827188 
 1088000      1088000     1342.898    1103.4901    239.40786    157.46409   -2048.1075    22194.018   0.73058069 
 1090000      1090000    1380.1495    1173.8782    206.27121    167.50822   -327.60268    22214.942   0.72989255 
 1092000      1092000    1293.2092    1093.6038    199.60535    156.05335    33.096847    21972.494   0.73794632 
 1094000      1094000     1316.861    1122.7127    194.14831    160.20707   -1252.8702     22238.14   0.72913117 
 1096000      1096000    1327.8374    1117.1027    210.73464    159.40656   -248.89545    22179.046   0.73107387 
 1098000      1098000    1275.7192    1105.5846    170.13457    157.76297   -512.09356    22337.162   0.72589888 
 1100000      1100000    1256.7835    1099.0822    157.70128    156.83509    -831.9947    22057.468   0.73510344 
 1102000      1102000    1288.9363    1103.6914    185.24492    157.49281   -68.480893    22292.984   0.72733739 
 1104000      1104000    1301.4274    1125.7474    175.68003    160.64012    766.62201    22126.896    0.7327969 
 1106000      1106000    1317.6972    1129.2815    188.41576    161.14442    533.34015    22055.191   0.73517933 
 1108000      1108000     1353.934    1097.1367    256.79732    156.55747     170.4231     22155.89   0.73183793 
 1110000      1110000    1279.8876    1122.8262    157.06143    160.22328   -70.600534    21888.383   0.74078203 
 1112000      1112000    1324.1047    1153.4529    170.65177     164.5936    156.17639    21885.996   0.74086282 
 1114000      1114000    1294.0323    1101.2156    192.81668    157.13952   -710.06171    22100.412   0.73367506 
 1116000      1116000    1339.1419    1095.7985    243.34344    156.36652    77.544914    22306.679   0.72689084 
 1118000      1118000      1323.94    1115.8776    208.06233    159.23174   -1372.4079    22118.501   0.73307505 
 1120000      1120000    1308.2061    1122.6753    185.53082    160.20175   -803.61418    22249.218   0.72876811 
 1122000      1122000    1256.8854    1116.9104    139.97497    159.37911   -31.617316    21864.671   0.74158541 
 1124000      1124000    1262.5664    1103.7053     158.8611    157.49479   -346.71189      21968.8   0.73807039 
 1126000      1126000     1316.578    1135.7193    180.85867    162.06308     1332.989    21927.649    0.7394555 
 1128000      1128000    1317.2085    1138.6683    178.54023    162.48388   -1219.1022     22145.12   0.73219387 
 1130000      1130000    1337.7625    1108.4049    229.35757    158.16541     1381.149    22166.315   0.73149375 
 1132000      1132000    1233.8539    1092.7309    141.12294    155.92879   -702.96316    21955.551   0.73851579 
 1134000      1134000    1336.3047    1148.9132    187.39154     163.9458   -246.73102     22008.38   0.73674305 
 1136000      1136000    1268.3219    1110.5424    157.77949    158.47043   -497.59217     21754.71    0.7453338 
 1138000      1138000    1308.0784    1127.0654    181.01299    160.82819   -503.78073    22128.597   0.73274058 
 1140000      1140000    1313.1573    1124.6754    188.48188    160.48715    978.06598    22269.687   0.72809828 
 1142000      1142000    1339.1303    1118.9212    220.20912    159.66604   -1662.9247    22263.774   0.72829165 
 1144000      1144000    1309.4634     1119.247    190.21635    159.71254   -607.16673    21971.036   0.73799527 
 1146000      1146000    1321.2282    1120.8545    200.37368    159.94193   -604.16189    22373.279   0.72472705 
 1148000      1148000    1280.6471    1102.4013    178.24579    157.30871    -1578.974    22277.383   0.72784676 
 1150000      1150000    1295.9176     1122.822    173.09553    160.22268   -101.93292    22064.484   0.73486972 
 1152000      1152000    1237.3162    1098.1265    139.18976    156.69871   -1246.4061    22172.966   0.73127433 
 1154000      1154000    1334.4046    1154.3292    180.07543    164.71864    361.59388    22055.286   0.73517617 
 1156000      1156000    1354.3867    1144.8112    209.57554    163.36045   -451.36398    22128.188   0.73275412 
 1158000      1158000    1332.5379    1150.9636    181.57433    164.23838    174.19055    22176.198   0.73116775 
 1160000      1160000     1327.593    1145.5492    182.04384    163.46576    746.36192    22127.493   0.73277715 
 1162000      1162000    1277.1711    1117.0568    160.11432        159.4     427.6473    22129.064    0.7327251 
 1164000      1164000    1320.3274     1162.098    158.22936    165.82722     94.02879    22098.448   0.73374026 
 1166000      1166000    1281.6366    1113.8752    167.76142      158.946    571.45901    21997.527   0.73710654 
 1168000      1168000    1273.6745    1090.7385    182.93595    155.64448    816.17461    22356.455   0.72527245 
 1170000      1170000    1269.1401    1086.0661    183.07396    154.97775    669.42652    22037.577   0.73576696 
 1172000      1172000    1305.4466    1095.8394    209.60726    156.37235   -132.93765    22056.949   0.73512076 
 1174000      1174000    1304.9161    1123.9182    180.99783     160.3791    159.00475    21921.863   0.73965069 
 1176000      1176000    1309.7547    1116.4224     193.3323    159.30947   -7.1644931    21969.096   0.73806046 
 1178000      1178000    1301.3358    1108.3058    193.03006    158.15126    73.173194    21907.472   0.74013654 
 1180000      1180000    1295.4138    1131.9209    163.49297    161.52105   -914.66432    21940.209   0.73903219 
 1182000      1182000    1313.7031    1143.4941    170.20905    163.17251   -526.30653    22125.899   0.73282994 
 1184000      1184000    1333.5798    1145.1928      188.387    163.41491   -135.56202    22079.996   0.73435345 
 1186000      1186000    1299.1085    1112.2964    186.81204    158.72072   -771.21605    22200.762   0.73035874 
 1188000      1188000    1288.5852    1113.8881    174.69712    158.94784    447.87391    22176.422   0.73116037 
 1190000      1190000    1310.1066    1140.0676    170.03897    162.68357  -0.14856346    21971.647   0.73797474 
 1192000      1192000    1323.0344    1105.8208    217.21364    157.79666   -1367.3318    22131.272   0.73265201 
 1194000      1194000    1296.4643    1147.1419    149.32243    163.69303    81.464995    21961.073   0.73833009 
 1196000      1196000    1335.4409    1132.3245    203.11646    161.57864   -205.50262    22125.346   0.73284824 
 1198000      1198000    1284.5824    1117.9572    166.62522    159.52849    215.80858    21860.127   0.74173956 
 1200000      1200000     1248.103    1105.9173    142.18576    157.81043    1417.5193    21790.324   0.74411563 
 1202000      1202000    1359.3101    1155.2764    204.03362    164.85381    247.73946    22022.741   0.73626262 
 1204000      1204000    1293.7976    1099.7276    194.07001    156.92719    739.36489    22041.096   0.73564949 
 1206000      1206000     1294.859    1130.6882    164.17086    161.34515   -1321.6536    21780.052    0.7444666 
 1208000      1208000    1288.4689    1121.8484     166.6205    160.08375    576.31792    21871.759   0.74134509 
 1210000      1210000     1283.902    1113.2197    170.68235    158.85246    455.01375    21966.728   0.73814001 
 1212000      1212000    1277.2694    1114.3972     162.8722    159.02049    859.67225    22121.393   0.73297919 
 1214000      1214000    1272.4847    1085.0152    187.46952    154.82778    158.12359     21994.28   0.73721535 
 1216000      1216000    1317.5568    1136.1237    181.43315    162.12078   -578.48317    22096.604   0.73380151 
 1218000      1218000    1393.4584    1169.3851    224.07324    166.86707    428.11183    22226.598    0.7295098 
 1220000      1220000    1296.6866    1138.3947    158.29191    162.44484    411.41534     22110.62   0.73333635 
 1222000      1222000    1296.1344    1097.1945     198.9399    156.56572   -973.25676    21994.653   0.73720285 
 1224000      1224000    1327.0586    1114.7348    212.32386    159.06866    711.69344    21999.593   0.73703731 
 1226000      1226000    1296.4558    1111.8371    184.61868    158.65517   -995.07915    21922.817   0.73961848 
 1228000      1228000    1242.0321     1090.294     151.7381    155.58105   -264.68397    21974.855   0.73786704 
 1230000      1230000    1343.2362    1129.6775    213.55869    161.20094     458.0249    22215.808   0.72986412 
 1232000      1232000    1272.3924    1121.1449    151.24756    159.98336    532.57498    21801.118   0.74374723 
 1234000      1234000    1329.7185    1145.8291    183.88943    163.50571   -80.674877     21942.44   0.73895705 
 1236000      1236000    1314.3233    1129.7356    184.58765    161.20922    608.68282    21975.463   0.73784661 
 1238000      1238000    1299.4009    1107.9934    191.40746    158.10669    388.37245    22099.564    0.7337032 
 1240000      1240000    1252.3799    1098.4978    153.88217     156.7517    1053.1412    21832.586   0.74267523 
 1242000      1242000      1333.62    1138.4369    195.18308    162.45086    233.45977    22105.414   0.73350902 
 1244000      1244000    1332.2153    1101.6894    230.52583    157.20713    -1346.442    22320.562   0.72643874 
 1246000      1246000    1306.2076    1125.7554    180.45217    160.64126    788.29997     22058.57   0.73506672 
 1248000      1248000    1329.5151    1113.3161    216.19902    158.86622    159.35294    22167.306   0.73146106 
 1250000      1250000    1295.4156    1115.5778    179.83781    159.18895    336.96577    21999.071    0.7370548 
 1252000      1252000    1315.5493    1139.2938    176.25549    162.57315    117.29431    22313.707   0.72666191 
 1254000      1254000    1375.4672    1153.2902    222.17698    164.57038   -537.20551    22098.788   0.73372898 
 1256000      1256000    1329.7229    1126.8867    202.83625    160.80269   -1066.5637    22238.411   0.72912229 
 1258000      1258000     1290.739    1099.4523    191.28667    156.88791   -2.2794744    22418.179   0.72327556 
 1260000      1260000    1306.2406    1088.8931    217.34743    155.38115   -410.27699    22116.431   0.73314364 
 1262000      1262000    1297.6455     1109.556    188.08954    158.32967    1780.3742    22089.487   0.73403791 
 1264000      1264000    1293.6197    1096.9456    196.67415     156.5302   -173.68251    22330.083     0.726129 
 1266000      1266000    1344.6193    1120.3941    224.22522    159.87623   -1415.1227    22458.421   0.72197957 
 1268000      1268000    1350.0708    1144.2473    205.82349    163.27999    309.27634    22177.151   0.73113634 
 1270000      1270000    1268.3229    1131.0396    137.28332     161.3953   -245.88187    21716.804   0.74663476 
 1272000      1272000    1226.1866    1061.0598     165.1268    151.40943   -1005.7743    21895.837   0.74052987 
 1274000      1274000    1275.8223    1117.5973    158.22499    159.47713    1965.4788    21688.231   0.74761843 
 1276000      1276000    1292.7649    1106.6148    186.15005    157.90997    132.49685     22219.69    0.7297366 
 1278000      1278000    1312.9171    1110.0352    202.88189    158.39805    294.39104    22072.907   0.73458929 
 1280000      1280000    1290.4866    1118.3212    172.16537    159.58043     709.1058    21902.982    0.7402883 
 1282000      1282000    1315.4668    1106.8444    208.62237    157.94274    290.48271    21984.734   0.73753545 
 1284000      1284000    1314.2007    1125.4788    188.72197    160.60179    606.16172    22092.605   0.73393432 
 1286000      1286000    1318.3961    1154.8975    163.49861    164.79973     1161.322    22030.368   0.73600772 
 1288000      1288000    1295.8677    1104.6791    191.18859    157.63375   -1402.6558    22105.633   0.73350176 
 1290000      1290000    1314.3515    1119.8763    194.47526    159.80233   -66.903082    22006.666   0.73680043 
 1292000      1292000    1327.6678    1107.5057    220.16211     158.0371    150.64967    22108.893   0.73339361 
 1294000      1294000    1313.0374    1115.3773    197.66015    159.16034    1981.1539     21782.69   0.74437641 
 1296000      1296000    1299.3906    1112.0362    187.35436    158.68358     223.2991    21900.244   0.74038083 
 1298000      1298000    1299.2756    1120.9824    178.29328    159.96017   -195.76102    21921.568   0.73966063 
 1300000      1300000    1275.2663    1106.0938    169.17252    157.83562     715.2761     21918.48   0.73976485 
 1302000      1302000    1268.0276    1109.9378    158.08978    158.38415    430.51325    21721.692   0.74646675 
 1304000      1304000      1272.82    1094.3019    178.51815    156.15296    1296.7638    22045.033   0.73551812 
 1306000      1306000    1289.6662    1130.0407    159.62552    161.25275    351.45349     21651.61   0.74888292 
 1308000      1308000    1298.8451    1106.4603    192.38477    157.88792   -745.87459    21950.723   0.73867821 
 1310000      1310000    1287.4336    1106.7933    180.64027    157.93544    291.65346    21854.579   0.74192786 
 1312000      1312000    1242.9493    1088.4308    154.51854    155.31518    1053.8416     21963.11   0.73826161 
 1314000      1314000    1303.4553    1102.1397    201.31554    157.27139   -476.66798    22219.821   0.72973229 
 1316000      1316000    1333.3194    1123.1131    210.20627    160.26421    -135.5618      21947.9   0.73877321 
 1318000      1318000    1302.7601    1094.7704    207.98973    156.21981    350.68783    22020.266   0.73634536 
 1320000      1320000    1291.5635    1120.1384    171.42503    159.83974   -645.95798    22209.243   0.73007986 
 1322000      1322000    1266.7311    1105.5764    161.15468    157.76179     469.3142    22154.644   0.73187911 
 1324000      1324000     1284.107    1091.0953    193.01162    155.69539    70.732264    22472.753   0.72151911 
 1326000      1326000    1296.2546    1111.0891    185.16544    158.54844   -1404.0253    22169.999    0.7313722 
 1328000      1328000    1341.5589    1128.8316    212.72725    161.08023    847.86479    21960.741   0.73834126 
 1330000      1330000    1295.9203    1112.4072    183.51309    158.73652     578.0008    22142.684   0.73227441 
 1332000      1332000    1318.9202    1087.1783    231.74186    155.13645   -325.67095    22292.534   0.72735208 
 1334000      1334000    1343.6805     1143.672    200.00847     163.1979    654.33859     22231.56   0.72934697 
 1336000      1336000    1295.2225    1122.1164     173.1061    160.12198    -122.3146    22233.617   0.72927948 
 1338000      1338000    1325.3449    1137.0288    188.31602    162.24994    706.22795    21999.752   0.73703197 
 1340000      1340000    1355.6478     1161.891    193.75675    165.79768    15.047997    22154.496     0.731884 
 1342000      1342000    1290.1471    1125.1332    165.01391    160.55248   -1166.3321    22162.805   0.73160959 
 1344000      1344000    1273.9508     1112.545    161.40582    158.75618    47.634687    22133.015   0.73259432 
 1346000      1346000    1288.7118    1112.5196    176.19221    158.75256   -1076.7932    22275.534   0.72790717 
 1348000      1348000    1308.4198    1119.2264    189.19338     159.7096   -598.68924      22134.1    0.7325584 
 1350000      1350000    1319.6328    1103.9414    215.69136    157.52848  0.056323659    22108.145   0.73341841 
 1352000      1352000    1340.6464    1122.4048     218.2416    160.16314   -1203.0643    22043.623   0.73556514 
 1354000      1354000    1317.8342     1127.156    190.67824    160.84112    669.81051     22229.62   0.72941061 
 1356000      1356000    1326.3664    1126.0185    200.34791     160.6788    -10.05887     22195.99   0.73051579 
 1358000      1358000    1328.0707    1132.1007       195.97    161.54672   -365.41636    21987.029   0.73745849 
[...]
 4682000      4682000    1328.0224    1124.7415    203.28093    160.49658   -23.458527    22102.414   0.73360861 
 4684000      4684000    1307.8697    1119.1519    188.71779    159.69897    72.520636    22184.976   0.73087844 
 4686000      4686000    1302.3684    1107.7801    194.58827    158.07625   -855.10951    22207.005   0.73015344 
 4688000      4688000     1210.374    1075.7325    134.64151    153.50317   -1194.7555    21877.914   0.74113651 
 4690000      4690000    1298.4613     1104.046    194.41534    157.54341    -976.8873    22095.671   0.73383246 
 4692000      4692000    1324.1961    1142.2165    181.97963     162.9902   -749.33984    22140.489   0.73234702 
 4694000      4694000    1283.7924    1116.7429    167.04951     159.3552   -612.13176    21882.289   0.74098835 
 4696000      4696000    1304.5321    1117.3635    187.16853    159.44378   -379.57257    22109.854   0.73336174 
 4698000      4698000    1307.5566    1132.2842    175.27242    161.57289   -1159.5544    21983.933   0.73756234 
 4700000      4700000    1284.6673    1092.4445    192.22274    155.88792   -507.06386    22016.556   0.73646947 
 4702000      4702000    1384.9258    1151.4261    233.49965    164.30438   -406.62049    22245.485   0.72889041 
 4704000      4704000    1307.6057    1123.0389    184.56682    160.25363   -1129.1331    22202.113   0.73031433 
 4706000      4706000    1287.9265    1132.1907    155.73572    161.55956   -301.89908    21862.359   0.74166382 
 4708000      4708000    1245.7167    1107.1716    138.54511    157.98942    198.78962    21913.308   0.73993944 
 4710000      4710000    1281.1907    1099.7098    181.48091    156.92464    1719.1537    21979.272   0.73771875 
 4712000      4712000    1312.5878    1141.6474    170.94043    162.90899   -686.01447    21877.278   0.74115805 
 4714000      4714000    1295.7482      1116.09    179.65816    159.26205   -91.962189    22110.205    0.7333501 
 4716000      4716000    1275.3804    1113.3024    162.07799    158.86426    845.50776    21827.821   0.74283736 
 4718000      4718000    1270.8016    1131.0281    139.77354    161.39366   -687.83132    21736.791   0.74594825 
 4720000      4720000    1352.1501    1149.7484    202.40172    164.06497    146.08355    22023.409    0.7362403 
 4722000      4722000    1318.6934    1153.6455    165.04792    164.62108    208.62345    21992.894   0.73726181 
 4724000      4724000    1311.4178    1119.3025     192.1153    159.72046   -462.36079     22160.43   0.73168802 
 4726000      4726000    1298.1031    1100.9706    197.13254    157.10456   -1345.0933    22021.898   0.73629078 
 4728000      4728000    1290.9322    1113.7768    177.15545    158.93196    192.89277    21989.024   0.73739158 
 4730000      4730000    1274.1845    1131.7043     142.4802    161.49015    95.654086    21891.944   0.74066153 
 4732000      4732000    1292.7368    1085.4719    207.26498    154.89294   -1293.9426    22030.745   0.73599514 
 4734000      4734000    1294.5415    1142.5584    151.98317    163.03898    284.81851    22018.014   0.73642069 
 4736000      4736000    1325.2757    1133.2887      191.987    161.71623    976.41844    21839.958   0.74242453 
 4738000      4738000    1297.8194    1116.9884    180.83096    159.39025   -437.86445    22063.418   0.73490523 
 4740000      4740000    1298.3952    1098.2718    200.12344    156.71945   -174.89299    22030.096   0.73601681 
 4742000      4742000    1326.7278    1148.0392    178.68858    163.82108    511.67459    22077.356   0.73444126 
 4744000      4744000    1269.7371     1114.822    154.91509    159.08111    1849.2368     21814.47   0.74329201 
 4746000      4746000    1345.9039      1150.61    195.29395    164.18792    926.63968    21946.935   0.73880573 
 4748000      4748000      1314.33    1119.8971     194.4329    159.80531   -357.33479    21932.106   0.73930526 
 4750000      4750000    1296.6185    1083.0137    213.60476    154.54218   -517.81996     21979.89     0.737698 
 4752000      4752000    1300.5592    1117.5625     182.9967    159.47216   -325.00118     21831.25   0.74272069 
 4754000      4754000    1290.4169    1119.7383    170.67859    159.78264   -620.09726    21965.483   0.73818184 
 4756000      4756000    1321.8793     1110.752    211.12725    158.50033   -356.62728    21970.908   0.73799958 
 4758000      4758000    1268.8396    1142.9387    125.90097    163.09325    633.35569    21923.455   0.73959698 
 4760000      4760000    1279.1958    1109.8782    169.31755    158.37564   -59.014669    21734.639   0.74602208 
 4762000      4762000    1310.8484    1126.4946    184.35385    160.74674    1260.2791    21841.112   0.74238531 
 4764000      4764000     1330.578    1116.5659    214.01201    159.32996   -352.04736    22207.455   0.73013864 
 4766000      4766000    1354.8651    1121.1471    233.71801    159.98368   -48.887237    22142.953   0.73226552 
 4768000      4768000     1335.573    1137.8828    197.69018     162.3718   -101.55692    22008.637   0.73673443 
 4770000      4770000    1281.3029    1107.8408    173.46208    158.08491   -91.525807    21910.949   0.74001912 
 4772000      4772000    1282.9806    1108.0005    174.98011     158.1077    477.86809    22339.984    0.7258072 
 4774000      4774000    1296.8419    1106.4102    190.43172    157.88076   -559.50361     22188.98   0.73074656 
 4776000      4776000    1294.9965    1135.4416    159.55486    162.02345    538.08279    21939.209    0.7390659 
 4778000      4778000    1342.5803    1146.3373    196.24306    163.57822    1501.2827    22221.761   0.72966858 
 4780000      4780000    1290.3434     1093.711    196.63241    156.06864   -1544.9047    22118.558   0.73307316 
 4782000      4782000    1256.2808    1083.1346    173.14619    154.55942    1494.7364    22049.972   0.73535335 
 4784000      4784000    1290.8386    1123.4114    167.42712    160.30679   -121.96535    21859.108   0.74177413 
 4786000      4786000    1364.5603     1139.703    224.85732    162.63154   -1578.7879    22384.237   0.72437229 
 4788000      4788000    1286.3622    1110.6661    175.69613    158.48807    -1191.262    22301.759   0.72705122 
 4790000      4790000    1308.8226    1119.8997    188.92281    159.80568     1772.292    21871.276   0.74136145 
 4792000      4792000    1326.2726    1124.7284    201.54424    160.49471    62.447219    22160.352   0.73169058 
 4794000      4794000    1295.6279    1106.9642    188.66361    157.95983   -2284.0042    22298.779   0.72714837 
 4796000      4796000    1317.4005    1120.9191    196.48136    159.95114    1227.6478    22144.344   0.73221951 
 4798000      4798000    1279.2123      1114.28    164.93236    159.00376   -695.20696     22173.35   0.73126166 
 4800000      4800000    1300.9918    1114.8813    186.11056    159.08957   -981.44639    22073.805   0.73455941 
 4802000      4802000    1268.9025    1116.9918     151.9107    159.39073    644.10221    22045.817   0.73549196 
 4804000      4804000    1244.4389    1089.2469    155.19204    155.43163    737.01517    21688.242   0.74761802 
 4806000      4806000    1313.3601    1108.1363    205.22387    158.12708    279.30106    21820.327   0.74309249 
 4808000      4808000    1271.7685    1121.7821    149.98638    160.07429   -545.78628    21867.268   0.74149735 
 4810000      4810000    1292.4782    1113.6913    178.78689    158.91975   -957.70833     21839.47   0.74244113 
 4812000      4812000    1317.7174    1118.6608    199.05659    159.62888    -924.8073    22159.029   0.73173427 
 4814000      4814000     1300.517    1134.8651    165.65191    161.94118   -188.47928    22002.223   0.73694922 
 4816000      4816000    1336.9264    1141.8286    195.09785    162.93484   -303.01716     22316.63   0.72656672 
 4818000      4818000    1325.4273    1137.6633    187.76399    162.34048   -868.90565    22150.888   0.73200322 
 4820000      4820000    1327.4273    1142.3663    185.06102    163.01158    893.45854    21932.145   0.73930394 
 4822000      4822000    1309.1375    1114.2513    194.88629    158.99966    1431.6945    21827.745   0.74283996 
 4824000      4824000    1289.3883    1086.5262     202.8621     155.0434   -329.28146    22430.175   0.72288875 
 4826000      4826000    1328.6101    1129.2546    199.35554    161.14058   -700.62152    22230.524   0.72938097 
 4828000      4828000    1294.9821    1126.5403    168.44185    160.75326   -955.32776     22039.72   0.73569541 
 4830000      4830000    1356.2983    1127.7966     228.5017    160.93253    677.73166    22123.576   0.73290686 
 4832000      4832000    1310.7474    1122.3417    188.40574    160.15413    431.51432    21992.466   0.73727615 
 4834000      4834000    1270.0333    1100.9227    169.11065    157.09772   -172.66338     22039.06   0.73571745 
 4836000      4836000    1317.8456    1113.7993    204.04638    158.93516    -70.33966    22330.836   0.72610451 
 4838000      4838000    1335.0731    1144.7563    190.31684    163.35262   -1771.8121    22013.941   0.73655693 
 4840000      4840000    1316.6964    1101.4944    215.20195    157.17931   -1236.6327    22169.814    0.7313783 
 4842000      4842000    1320.1494    1122.4702    197.67914    160.17248   -662.39324     22232.27   0.72932368 
 4844000      4844000    1361.1633    1153.2186     207.9447    164.56017   -232.99249    22214.844   0.72989577 
 4846000      4846000    1270.7314    1099.7202    171.01127    156.92613    126.62438    21972.422   0.73794872 
 4848000      4848000    1359.8867    1143.1175    216.76928    163.11877   -1258.7393    21838.976   0.74245792 
 4850000      4850000    1291.6808    1124.8007    166.88005    160.50503    437.42767    22063.992   0.73488609 
 4852000      4852000     1317.401    1138.9768    178.42425    162.52791   -1882.3582    21843.635   0.74229958 
 4854000      4854000    1336.0731    1139.1256    196.94748    162.54914   -1170.8004    22240.379   0.72905775 
 4856000      4856000    1306.1108    1111.8288    194.28197    158.65399    1049.5069    22074.257   0.73454435 
 4858000      4858000    1349.6433     1144.269    205.37437    163.28308    1576.2046    22396.268   0.72398317 
 4860000      4860000     1290.855    1096.8469    194.00801    156.51613    1013.4522    22242.391   0.72899182 
 4862000      4862000    1304.0009    1139.2104    164.79049    162.56124    -181.7744    22213.078    0.7299538 
 4864000      4864000    1256.4246    1085.1249    171.29966    154.84344   -143.01173    22098.491   0.73373884 
 4866000      4866000    1299.5913    1108.7745    190.81679    158.21816   -282.68279    22264.254   0.72827597 
 4868000      4868000    1296.9918    1131.7826    165.20918    161.50132     849.3428    22147.714   0.73210812 
 4870000      4870000    1336.5541    1159.6386    176.91557    165.47627    663.81277     22028.65    0.7360651 
 4872000      4872000    1306.1024    1120.5394    185.56299    159.89695   -726.38684     21845.93   0.74222161 
 4874000      4874000    1322.0575    1139.7491     182.3084    162.63811    1006.7769    21888.488   0.74077847 
 4876000      4876000    1277.3372    1110.9244    166.41286    158.52493   -551.16402    21897.972   0.74045765 
 4878000      4878000    1252.0273    1095.8684    156.15896    156.37649     238.7295    22040.517   0.73566881 
 4880000      4880000    1324.7695    1132.8559    191.91368    161.65447    66.123943    22153.933    0.7319026 
 4882000      4882000    1374.4099    1153.8494    220.56046    164.65018   -125.31454    22263.099   0.72831373 
 4884000      4884000    1273.6419    1078.4908     195.1511    153.89677     291.5397    22296.812   0.72721252 
 4886000      4886000    1329.1576    1116.6139    212.54363    159.33681   -1246.1628    22275.062    0.7279226 
 4888000      4888000    1315.8059    1098.8913    216.91462    156.80785    342.00049    22032.541   0.73593512 
 4890000      4890000    1355.0941    1131.5759    223.51817    161.47183   -743.82741    22099.574   0.73370288 
 4892000      4892000    1306.8293    1118.2189    188.61031    159.56584   -495.72691     22189.36   0.73073404 
 4894000      4894000    1366.6209    1136.5845    230.03641    162.18653     719.9863    22231.223   0.72935803 
 4896000      4896000    1282.2889    1074.5677    207.72125    153.33696    2020.0178    22034.244   0.73587825 
 4898000      4898000    1305.8419    1123.6013    182.24051    160.33389    915.29949     22244.71   0.72891581 
 4900000      4900000    1330.1223    1106.3885    223.73388    157.87767   -657.59565     22502.22   0.72057429 
 4902000      4902000     1371.231    1145.3604    225.87054    163.43883    163.29604    22269.525   0.72810357 
 4904000      4904000    1323.6658    1130.7531    192.91277    161.35441    -581.6826    22111.203     0.733317 
 4906000      4906000    1311.8277    1123.3677    188.45999    160.30055   -309.59117    22067.667   0.73476371 
 4908000      4908000    1307.3557    1130.9564    176.39926    161.38343   -196.35045    22044.658   0.73553061 
 4910000      4910000    1302.1335    1116.3413     185.7922     159.2979   -118.27438    21866.266    0.7415313 
 4912000      4912000    1317.4941    1103.9448    213.54932    157.52896    986.48585    21851.876   0.74201962 
 4914000      4914000    1290.3096    1112.4732    177.83635    158.74594   -975.31576    22139.788   0.73237021 
 4916000      4916000    1315.3847    1121.1077    194.27707    159.97805    179.77657    21868.247   0.74146413 
 4918000      4918000    1323.2071    1153.2031    170.00395    164.55795    1033.8855    21870.978   0.74137154 
 4920000      4920000    1292.4333    1130.4116    162.02174    161.30568   -72.928507    22049.711   0.73536205 
 4922000      4922000    1338.9798    1139.0349    199.94483    162.53621   -141.69052    22173.428   0.73125911 
 4924000      4924000    1303.8776    1125.9345    177.94303    160.66682    651.00691    22127.144   0.73278869 
 4926000      4926000    1329.1436    1137.8504    191.29324    162.36718   -210.95552    22244.585   0.72891992 
 4928000      4928000    1280.9757    1101.5665    179.40918    157.18959   -1155.8958    22112.834    0.7332629 
 4930000      4930000    1286.4729    1110.9107    175.56216    158.52298    304.70424    22155.354   0.73185564 
 4932000      4932000    1313.0683    1131.6257    181.44259    161.47893    415.61109    22242.392   0.72899178 
 4934000      4934000    1297.3627     1125.242    172.12071      160.568     1242.492    21899.567   0.74040372 
 4936000      4936000    1310.0547    1128.2363    181.81844    160.99527    540.00558    22247.456   0.72882584 
 4938000      4938000    1290.7448    1091.3499    199.39492    155.73172    211.98207     22052.72   0.73526172 
 4940000      4940000    1285.3244    1105.8127    179.51177     157.7955   -637.25137    21977.208   0.73778802 
 4942000      4942000    1288.5895    1093.5177    195.07188    156.04105    1121.2951    22178.933   0.73107759 
 4944000      4944000     1273.275    1092.9284    180.34664    155.95696    566.41561     22067.98   0.73475331 
 4946000      4946000    1325.0124     1121.563    203.44935    160.04302    214.09426    22332.404   0.72605353 
 4948000      4948000    1306.2667     1119.981    186.28565    159.81728     403.3857     22157.35   0.73178972 
 4950000      4950000    1273.3581    1110.2831    163.07505    158.43342   -36.495572    22047.567   0.73543357 
 4952000      4952000    1287.5883    1110.8277    176.76059    158.51114    -212.3627    22046.545   0.73546766 
 4954000      4954000    1337.0823    1117.9301    219.15217    159.52462   -195.03094    22342.717   0.72571841 
 4956000      4956000    1323.0563    1119.1339    203.92239     159.6964    127.77753    22270.927   0.72805776 
 4958000      4958000    1289.6051    1109.0577    180.54732    158.25857   -424.15049    21970.505   0.73801312 
 4960000      4960000    1328.2946    1131.3016    196.99301    161.43268   -27.653853    22144.254   0.73222249 
 4962000      4962000    1257.7709    1088.7231    169.04783    155.35688   -1550.1725    22043.747   0.73556103 
 4964000      4964000    1296.0772    1139.9878    156.08946    162.67217    1115.0648    21934.839   0.73921313 
 4966000      4966000    1327.0714    1106.9246    220.14682    157.95417    1629.4921    22283.775   0.72763798 
 4968000      4968000    1286.4444    1088.5309    197.91354    155.32945   -821.27221    22282.057   0.72769407 
 4970000      4970000    1329.3315     1119.461    209.87056    159.74307    -348.6643    22370.219   0.72482619 
 4972000      4972000    1306.9064    1120.0499    186.85649    159.82711     412.1758    22251.478   0.72869409 
 4974000      4974000    1302.6507    1128.0505    174.60022    160.96876    1000.3471    22012.519   0.73660451 
 4976000      4976000    1267.9486    1131.0727    136.87583    161.40003   -245.78346    22172.521     0.731289 
 4978000      4978000    1355.5233    1154.1485    201.37477    164.69286   -29.197893    22198.136   0.73044517 
 4980000      4980000    1256.4233    1068.9744    187.44892    152.53882    146.04573     22066.19    0.7348129 
 4982000      4982000    1340.1024    1159.2879    180.81453    165.42623    68.258021     22138.11   0.73242572 
 4984000      4984000    1289.6256    1134.3797    155.24581    161.87193    -30.49089    21818.035   0.74317053 
 4986000      4986000    1311.6614    1129.8093    181.85206    161.21974   -279.56929    22024.507   0.73620357 
 4988000      4988000    1318.7162    1147.2078     171.5084    163.70244   -1904.0031    22324.117   0.72632306 
 4990000      4990000    1344.4587    1136.3131    208.14567     162.1478   -875.69418    22083.406   0.73424003 
 4992000      4992000    1270.2057    1084.7412    185.46451    154.78868    580.21331    22043.457    0.7355707 
 4994000      4994000    1295.7167    1082.6773    213.03939    154.49418      304.322    22121.144   0.73298746 
 4996000      4996000    1248.2483    1106.6979    141.55033    157.92183    203.34215    21959.524   0.73838218 
 4998000      4998000    1281.1232    1084.8905    196.23267    154.80999   -178.08642    22180.364   0.73103042 
 5000000      5000000    1313.6824    1132.0057    181.67672    161.53316   -103.91185    21936.478   0.73915788 
Loop time of 8069.08 on 30 procs for 5000000 steps with 2352 atoms

Performance: 53.538 ns/day, 0.448 hours/ns, 619.649 timesteps/s
92.9% CPU use with 30 MPI tasks x 1 OpenMP threads

MPI task timing breakdown:
Section |  min time  |  avg time  |  max time  |%varavg| %total
---------------------------------------------------------------
Pair    | 3264.2     | 3741.3     | 4187.1     | 376.1 | 46.37
Bond    | 172.55     | 179.56     | 185.51     |  33.8 |  2.23
Kspace  | 966.84     | 1360       | 1919.4     | 675.2 | 16.85
Neigh   | 175.55     | 179.01     | 184.32     |  20.8 |  2.22
Comm    | 1942.6     | 2056.5     | 2141.8     | 121.5 | 25.49
Output  | 1.317      | 1.321      | 1.4049     |   1.4 |  0.02
Modify  | 206.9      | 243.1      | 292.67     | 155.9 |  3.01
Other   |            | 308.3      |            |       |  3.82

Nlocal:    78.4 ave 94 max 69 min
Histogram: 2 4 5 5 8 3 0 2 0 1
Nghost:    5568.2 ave 5644 max 5484 min
Histogram: 2 1 3 4 2 4 6 5 0 3
Neighs:    48296.2 ave 59208 max 36448 min
Histogram: 2 3 1 8 1 1 4 2 6 2

Total # of neighbors = 1448885
Ave neighs/atom = 616.023
Ave special neighs/atom = 9.14286
Neighbor list builds = 113374
Dangerous builds = 0
write_data ethanol_after_npt.data
Ewald initialization ...
  using 12-bit tables for long-range coulomb (src/kspace.cpp:332)
  G vector (1/distance) = 0.189385
  estimated absolute RMS force accuracy = 0.00391074
  estimated relative force accuracy = 1.17771e-05
  KSpace vectors: actual max1d max3d = 128 4 364
                  kxmax kymax kzmax  = 4 4 4



#fix 1 all nvt temp 300 300 100# iso 1.0 1.0 1000.0
#dump            DUMPxyz all xyz 1 but1_clms_20ps.xyz

#run 500000
Total wall time: 2:14:29
