LAMMPS (3 Mar 2020)
  using 1 OpenMP thread(s) per MPI task
units           real
atom_style      full
boundary        p p p


pair_style      lj/cut/coul/long 12.0
pair_modify     tail yes mix geometric
bond_style      harmonic
angle_style     harmonic
dihedral_style  opls

kspace_style    ewald 1.0e-5
#special_bonds   lj/coul 0.0 0.0 0.5

neighbor        2.0 bin
neigh_modify    every 1 delay 0 check yes

read_data       butane_after_npt.data
  orthogonal box = (3.14713 3.14713 3.14713) to (31.8529 31.8529 31.8529)
  2 by 3 by 4 MPI processor grid
  reading atoms ...
  2352 atoms
  reading velocities ...
  2352 velocities
  scanning bonds ...
  1 = max bonds/atom
  scanning angles ...
  6 = max angles/atom
  scanning dihedrals ...
  11 = max dihedrals/atom
  reading bonds ...
  2184 bonds
  reading angles ...
  4032 angles
  reading dihedrals ...
  4536 dihedrals
  4 = max # of 1-2 neighbors
  6 = max # of 1-3 neighbors
  9 = max # of 1-4 neighbors
  13 = max # of special neighbors
  special bonds CPU = 0.000957068 secs
  read_data CPU = 0.0728295 secs

group           mobile union all
2352 atoms in group mobile

#minimize 1.0e-8 1.0e-10 400000 400000
#write_data buate_after_min.data

fix DEF all deform 1 x final 0.0 28.6278 y final 0.0 28.6278 z final 0.0 28.6278 units box
run 1
Ewald initialization ...
  using 12-bit tables for long-range coulomb (src/kspace.cpp:332)
  G vector (1/distance) = 0.188693
  estimated absolute RMS force accuracy = 0.00418168
  estimated relative force accuracy = 1.2593e-05
  KSpace vectors: actual max1d max3d = 128 4 364
                  kxmax kymax kzmax  = 4 4 4
Neighbor list info ...
  update every 1 steps, delay 0 steps, check yes
  max neighbors/atom: 2000, page size: 100000
  master list distance cutoff = 14
  ghost atom cutoff = 14
  binsize = 7, bins = 5 5 5
  1 neighbor lists, perpetual/occasional/extra = 1 0 0
  (1) pair lj/cut/coul/long, perpetual
      attributes: half, newton on
      pair build: half/bin/newton
      stencil: half/bin/3d/newton
      bin: standard
Per MPI rank memory allocation (min/avg/max) = 19.27 | 19.28 | 19.28 Mbytes
Step Temp E_pair E_mol TotEng Press Volume 
       0    202.06947    -822.9252    1412.3227     2005.477   -1671.3023    23654.084 
       1    202.06947   -823.16481    1412.3227    2005.2374     -1686.39     23461.94 
WARNING: Bond/angle/dihedral extent > half of periodic box length (src/domain.cpp:906)
Loop time of 0.0020574 on 24 procs for 1 steps with 2352 atoms

Performance: 41.995 ns/day, 0.571 hours/ns, 486.051 timesteps/s
57.8% CPU use with 24 MPI tasks x 1 OpenMP threads

MPI task timing breakdown:
Section |  min time  |  avg time  |  max time  |%varavg| %total
---------------------------------------------------------------
Pair    | 0.00095161 | 0.0011004  | 0.0012292  |   0.2 | 53.49
Bond    | 3.273e-05  | 4.3993e-05 | 5.8669e-05 |   0.0 |  2.14
Kspace  | 0.00013112 | 0.0002757  | 0.0004304  |   0.0 | 13.40
Neigh   | 0          | 0          | 0          |   0.0 |  0.00
Comm    | 0.00048182 | 0.00050369 | 0.0005375  |   0.0 | 24.48
Output  | 4.2359e-05 | 5.6528e-05 | 6.7876e-05 |   0.0 |  2.75
Modify  | 4.118e-06  | 5.2047e-06 | 9.287e-06  |   0.0 |  0.25
Other   |            | 7.184e-05  |            |       |  3.49

Nlocal:    98 ave 107 max 85 min
Histogram: 1 2 0 2 2 5 4 2 2 4
Nghost:    5467.04 ave 5544 max 5385 min
Histogram: 2 1 0 5 3 3 5 3 0 2
Neighs:    55903.4 ave 62169 max 47387 min
Histogram: 2 0 2 3 2 2 3 6 1 3

Total # of neighbors = 1341682
Ave neighs/atom = 570.443
Ave special neighs/atom = 9.14286
Neighbor list builds = 0
Dangerous builds = 0
unfix DEF

thermo_style    custom step time enthalpy etotal ke pe temp press vol density
#thermo_modify   line multi
thermo          1000
thermo_modify   flush yes
timestep 1.0


## Equil NPT ##
#fix      NPT  all nvt temp 272 272 100 iso 1 1 1000
#restart 1000000 liqbut1.restart

#fix      NPT  all npt temp 160 160 50 iso 1 1 500
#dump myDump all atom 2000 butane_npt.lammpstrj

#run 5000000
#write_data ethanol_after_npt.data



fix 1 all nvt temp 200 200 100 # iso 1.0 1.0 1000.0
#dump            DUMPxyz all xyz 1 but1_clms_20ps.xyz
#dump            DUMP all custom 1000 mol.lammpstrj id type x y z fx fy fz mol

run 1000000
Ewald initialization ...
  using 12-bit tables for long-range coulomb (src/kspace.cpp:332)
  G vector (1/distance) = 0.188768
  estimated absolute RMS force accuracy = 0.0041484
  estimated relative force accuracy = 1.24928e-05
  KSpace vectors: actual max1d max3d = 128 4 364
                  kxmax kymax kzmax  = 4 4 4
Per MPI rank memory allocation (min/avg/max) = 19.27 | 19.28 | 19.28 Mbytes
Step Time Enthalpy TotEng KinEng PotEng Temp Press Volume Density 
       1            1    3272.5258    2000.6423    1416.0795    584.56282    202.06947    3717.1279     23461.94   0.69109889 
    1000         1000    2050.2899    1911.5152    1397.9538    513.56138      199.483    405.57442     23461.94   0.69109889 
    2000         2000     2034.393    1932.3159    1352.7556    579.56033    193.03338    298.32398     23461.94   0.69109889 
    3000         3000    1863.6567    1988.3468    1428.6027    559.74408    203.85649   -364.41176     23461.94   0.69109889 
    4000         4000    2007.1481    1918.4575    1383.6572    534.80035    197.44292    259.20152     23461.94   0.69109889 
    5000         5000    1799.3193    1932.8218    1421.5799    511.24196    202.85436    -390.1661     23461.94   0.69109889 
    6000         6000    1458.6935    1966.2793    1404.4772    561.80211    200.41386   -1483.4389     23461.94   0.69109889 
    7000         7000    1651.3014    1911.0804    1348.9613    562.11911    192.49195    -759.2141     23461.94   0.69109889 
    8000         8000    1889.7816    1975.6794    1389.4478    586.23151    198.26923   -251.03955     23461.94   0.69109889 
    9000         9000    1900.9224    1931.3294    1377.4836    553.84572    196.56198   -88.865546     23461.94   0.69109889 
   10000        10000     2349.371    1966.3436    1406.7461    559.59753    200.73763    1119.4121     23461.94   0.69109889 
   11000        11000    2108.3856    1953.7264    1419.7039    534.02254    202.58666     451.9972     23461.94   0.69109889 
   12000        12000    1925.3043    1954.1673    1405.8869    548.28043    200.61502    -84.35332     23461.94   0.69109889 
   13000        13000    1424.8576    1926.6955    1377.8223    548.87317    196.61031   -1466.6404     23461.94   0.69109889 
   14000        14000    2535.6752    2021.2597    1439.6726     581.5871    205.43612     1503.399     23461.94   0.69109889 
   15000        15000    2011.5249    1905.1012    1386.6835     518.4177    197.87477    311.02709     23461.94   0.69109889 
   16000        16000    2133.1864     1959.875    1381.4526    578.42234    197.12834     506.5092     23461.94   0.69109889 
   17000        17000    1589.3908    1939.4434     1382.979    556.46443    197.34614   -1023.0421     23461.94   0.69109889 
   18000        18000    2089.4385    1932.8443    1421.7849     511.0594    202.88362    457.65239     23461.94   0.69109889 
   19000        19000    1950.3826    1978.0266    1400.7221    577.30447    199.87803   -80.790533     23461.94   0.69109889 
   20000        20000    2305.2884    1939.2074     1407.911    531.29645    200.90386    1069.8855     23461.94   0.69109889 
   21000        21000    1941.0801     1873.938    1363.4515    510.48653    194.55964    196.22533     23461.94   0.69109889 
   22000        22000    1525.3356    1975.0288    1411.9238    563.10504    201.47647   -1314.2457     23461.94   0.69109889 
   23000        23000    1978.5698    1971.0563    1426.0391    545.01714    203.49068    21.958678     23461.94   0.69109889 
   24000        24000    2253.7535    1979.2579    1413.5755    565.68238    201.71216    802.22392     23461.94   0.69109889 
   25000        25000     1614.196    1923.4028    1407.1772    516.22556    200.79915   -903.66856     23461.94   0.69109889 
   26000        26000    1552.0213    1954.9664    1450.8761    504.09031    207.03482   -1177.6223     23461.94   0.69109889 
   27000        27000     1426.412    1933.2065    1391.3499    541.85654    198.54065   -1481.1262     23461.94   0.69109889 
   28000        28000    1691.7515    1879.1856    1370.6094    508.57626    195.58105   -547.78327     23461.94   0.69109889 
   29000        29000    1840.8215    1945.6733    1398.8643    546.80904    199.61292   -306.43353     23461.94   0.69109889 
   30000        30000    1779.2683    1940.6919    1402.2028    538.48908    200.08932   -471.76672     23461.94   0.69109889 
   31000        31000    1936.8074    1961.8058    1411.8516    549.95413    201.46617   -73.058693     23461.94   0.69109889 
   32000        32000    1618.8507     1951.232    1387.4885    563.74347    197.98964   -971.39713     23461.94   0.69109889 
   33000        33000    1826.2714     1930.273    1392.7869    537.48613     198.7457   -303.94881     23461.94   0.69109889 
   34000        34000    1848.4587    1978.5289      1437.04    541.48888    205.06047   -380.13514     23461.94   0.69109889 
   35000        35000    1424.1245    1886.8261    1374.0174    512.80865    196.06736   -1352.2629     23461.94   0.69109889 
   36000        36000     2496.802    1923.8555     1406.233    517.62251    200.66441     1674.458     23461.94   0.69109889 
   37000        37000    2000.0801    1985.5548    1413.8981    571.65667     201.7582    42.450827     23461.94   0.69109889 
   38000        38000    1937.0735    1912.8017    1408.1136    504.68801    200.93277    70.935345     23461.94   0.69109889 
   39000        39000    1811.7317    2005.2271    1443.5166    561.71048    205.98464    -565.4976     23461.94   0.69109889 
   40000        40000    1483.9806    1933.3177    1373.4203    559.89736    195.98216   -1313.2046     23461.94   0.69109889 
   41000        41000    1374.7302    1926.1755    1397.9574    528.21815    199.48351   -1611.6199     23461.94   0.69109889 
   42000        42000    2398.8687     1993.595    1417.7605     575.8345    202.30934    1184.4278     23461.94   0.69109889 
   43000        43000     2507.112    1911.4107    1374.0843    537.32635    196.07691    1740.9598     23461.94   0.69109889 
   44000        44000    2367.9044    1926.3481    1385.9425     540.4056    197.76903    1290.4651     23461.94   0.69109889 
   45000        45000    2304.8499     1983.631    1402.4891     581.1419    200.13017    938.77456     23461.94   0.69109889 
   46000        46000    2054.0658    1919.0402    1397.3176    521.72261    199.39222    394.61736     23461.94   0.69109889 
   47000        47000    2799.1148    1994.4666    1433.0177    561.44888    204.48649    2351.6153     23461.94   0.69109889 
   48000        48000      2089.72    1938.8341    1391.4023     547.4318    198.54812    440.97004     23461.94   0.69109889 
   49000        49000    2089.9048    1934.8469    1383.9595    550.88747    197.48606    453.16252     23461.94   0.69109889 
   50000        50000     2187.979    1938.5977    1395.0457    543.55191    199.06803    728.82663     23461.94   0.69109889 
   51000        51000    2277.1866    1969.4872    1415.1837    554.30343    201.94165    899.26335     23461.94   0.69109889 
   52000        52000    2035.7424    1991.2984    1422.2942    569.00423    202.95628    129.88921     23461.94   0.69109889 
   53000        53000    2349.4374    1969.5976    1446.0989    523.49866    206.35313    1110.0963     23461.94   0.69109889 
   54000        54000    2281.2073    1982.3028    1432.2968    550.00606    204.38362    873.55965     23461.94   0.69109889 
   55000        55000    2327.4539    1938.9309    1415.1423    523.78855    201.93574    1135.4734     23461.94   0.69109889 
   56000        56000    1705.6274    1935.8515    1380.1758    555.67571    196.94615    -672.8388     23461.94   0.69109889 
   57000        57000    1758.1198    1999.2008    1452.9615    546.23929     207.3324    -704.5683     23461.94   0.69109889 
   58000        58000    1622.5531    1995.8559    1425.5291    570.32678    203.41789   -1090.9916     23461.94   0.69109889 
   59000        59000    1596.6627     1920.049    1381.3316    538.71743    197.11106   -945.10863     23461.94   0.69109889 
   60000        60000    1553.1949    1876.4157     1353.902    522.51373    193.19696    -944.6252     23461.94   0.69109889 
   61000        61000    1727.0981     1958.567    1393.8428    564.72422    198.89637   -676.47674     23461.94   0.69109889 
   62000        62000    1952.8372    1932.9678     1409.904    523.06384    201.18825    58.068847     23461.94   0.69109889 
   63000        63000    2397.5354    1970.3163    1409.3778    560.93849    201.11317    1248.5641     23461.94   0.69109889 
   64000        64000    1981.3586    1904.6363    1406.3292    498.30711    200.67814    224.22366     23461.94   0.69109889 
   65000        65000    1875.6846    1949.4834     1401.455    548.02836    199.98261   -215.67986     23461.94   0.69109889 
   66000        66000     1582.313    1927.7434    1379.6217    548.12174    196.86707   -1009.5335     23461.94   0.69109889 
   67000        67000    1840.2675    1974.4799    1404.4062    570.07374    200.40373   -392.24096     23461.94   0.69109889 
   68000        68000    2124.5538    1907.0292     1377.226    529.80324    196.52521    635.72405     23461.94   0.69109889 
   69000        69000    1868.1725    1974.5047    1416.5289    557.97583    202.13359   -310.75985     23461.94   0.69109889 
   70000        70000    2091.1947    1916.5226    1371.5038    545.01882    195.70867    510.48583     23461.94   0.69109889 
   71000        71000    1860.7731    1935.4611    1371.4488    564.01228    195.70083   -218.27869     23461.94   0.69109889 
   72000        72000    2523.8639     2005.101    1442.1167    562.98428    205.78488    1516.1044     23461.94   0.69109889 
   73000        73000    1986.1556     1933.829    1389.7644     544.0646     198.3144    152.92662     23461.94   0.69109889 
   74000        74000    1875.1198    1979.5143    1421.8959    557.61841    202.89945   -305.09686     23461.94   0.69109889 
   75000        75000    2024.0539    1944.6378    1395.8417    548.79608    199.18161    232.09647     23461.94   0.69109889 
   76000        76000    1812.0528    1905.7777     1351.304    554.47368    192.82624   -273.91449     23461.94   0.69109889 
   77000        77000    2001.1175    1948.7924    1409.7077    539.08471    201.16023     152.9223     23461.94   0.69109889 
   78000        78000    1574.3305    1964.1624    1427.5186    536.64377    203.70179   -1139.2986     23461.94   0.69109889 
   79000        79000    1803.1132    1934.5457    1377.2262    557.31951    196.52525   -384.11661     23461.94   0.69109889 
   80000        80000    2284.6938    1959.1161    1426.5606    532.55551    203.56509    951.51314     23461.94   0.69109889 
   81000        81000    2051.4842    1913.6852     1358.786    554.89919    193.89389    402.72279     23461.94   0.69109889 
   82000        82000    1757.4806    1952.1616    1395.9721    556.18949    199.20021    -568.9625     23461.94   0.69109889 
   83000        83000     2168.724    1950.2752    1385.8263    564.44889    197.75244    638.42497     23461.94   0.69109889 
   84000        84000    2036.5189    1983.5485    1409.6641    573.88441    201.15401    154.80805     23461.94   0.69109889 
   85000        85000    1681.9483    1874.8743    1395.8284    479.04596    199.17971   -563.83375     23461.94   0.69109889 
   86000        86000    1870.8987    1965.9333    1402.8292    563.10406     200.1787   -277.74216     23461.94   0.69109889 
   87000        87000    1550.2754    1900.5976    1402.7331    497.86456    200.16498     -1023.83     23461.94   0.69109889 
   88000        88000    2329.5894    1921.8883    1411.4541    510.43426    201.40944     1191.522     23461.94   0.69109889 
   89000        89000    1646.6882    2025.6916     1407.737    617.95454    200.87903   -1107.6519     23461.94   0.69109889 
   90000        90000    1399.8885    1913.3703    1403.0808    510.28947     200.2146     -1500.67     23461.94   0.69109889 
   91000        91000    1650.4881    1954.9799    1411.3567    543.62318    201.39554   -889.88887     23461.94   0.69109889 
   92000        92000     1770.387     1980.449    1406.8786    573.57034    200.75654   -613.91414     23461.94   0.69109889 
   93000        93000    1793.9036    1934.2398    1375.9752    558.26453    196.34674   -410.13771     23461.94   0.69109889 
   94000        94000    2701.3853    1954.7494    1421.9734    532.77601    202.91051    2182.0718     23461.94   0.69109889 
   95000        95000    1986.7508    1957.3424    1383.9087    573.43372    197.47881    85.947005     23461.94   0.69109889 
   96000        96000    1886.4183    1941.4778    1409.6233    531.85447     201.1482   -160.91339     23461.94   0.69109889 
   97000        97000    1911.3512    1907.5382    1387.3547    520.18352    197.97054    11.143558     23461.94   0.69109889 
   98000        98000    2288.8472    1919.1034    1395.6571    523.44632    199.15526    1080.5905     23461.94   0.69109889 
   99000        99000    2031.0292     1969.499    1437.8585    531.64051    205.17725    179.82446     23461.94   0.69109889 
  100000       100000    1875.4497    1902.7489    1370.8564    531.89256    195.61629   -79.783111     23461.94   0.69109889 
  101000       101000    2112.8906     1952.823    1404.0524    548.77059    200.35324    467.80381     23461.94   0.69109889 
  102000       102000    2142.5932    1918.7212    1370.6935    548.02779    195.59304    654.27433     23461.94   0.69109889 
  103000       103000    2301.0042    2000.2935    1417.5897    582.70379    202.28497     878.8385     23461.94   0.69109889 
  104000       104000    2464.1654    1978.1299    1425.3642    552.76573    203.39437    1420.4571     23461.94   0.69109889 
  105000       105000    2107.6102    1941.4131    1408.4878     532.9253    200.98616    485.71744     23461.94   0.69109889 
  106000       106000    2450.5201    1940.5634    1425.7052     514.8582    203.44302    1490.3678     23461.94   0.69109889 
  107000       107000    2088.0342    1881.6151     1410.965    470.65015    201.33964    603.26766     23461.94   0.69109889 
  108000       108000    1882.0712    1964.8458    1413.3132    551.53258    201.67473   -241.91176     23461.94   0.69109889 
  109000       109000    2151.9795    1924.4493    1393.7938    530.65552    198.88938    664.96581     23461.94   0.69109889 
  110000       110000    2040.8738    1983.3639    1427.1441    556.21983    203.64834    168.07506     23461.94   0.69109889 
  111000       111000    2120.3167     1915.188    1414.4583    500.72972    201.83813    599.49643     23461.94   0.69109889 
  112000       112000    1624.3028    1944.4629    1407.4176    537.04526    200.83345   -935.68006     23461.94   0.69109889 
  113000       113000    2014.6514    1904.8078    1385.3898    519.41798    197.69016    321.02207     23461.94   0.69109889 
  114000       114000    1628.4495    1926.3709    1392.5194    533.85158    198.70752   -870.68692     23461.94   0.69109889 
  115000       115000    1786.9243    2051.8529    1471.8872    579.96571    210.03302   -774.26375     23461.94   0.69109889 
  116000       116000    1688.1235    1950.2259    1408.0475    542.17847    200.92333   -766.00421     23461.94   0.69109889 
  117000       117000    2016.2013    1910.9099    1391.3727    519.53718     198.5439    307.71831     23461.94   0.69109889 
  118000       118000    2504.7999    1957.7785    1376.0384     581.7401    196.35575    1598.6907     23461.94   0.69109889 
  119000       119000    1744.5999    1975.0283    1435.7089     539.3194    204.87051   -673.43557     23461.94   0.69109889 
  120000       120000    1908.3973    1902.7609    1391.7023    511.05862    198.59093    16.472649     23461.94   0.69109889 
  121000       121000    2320.7345    1952.0166    1408.9531    543.06351    201.05256    1077.5922     23461.94   0.69109889 
  122000       122000    1475.3656    1963.5386    1374.0414    589.49721    196.07079   -1426.7044     23461.94   0.69109889 
  123000       123000    1990.0147    1924.4734    1405.9747    518.49876    200.62755    191.54689     23461.94   0.69109889 
  124000       124000     2367.873    1914.1468    1412.3721    501.77463    201.54044    1326.0323     23461.94   0.69109889 
  125000       125000    2049.6844    1965.0543     1398.356    566.69835    199.54039    247.33449     23461.94   0.69109889 
  126000       126000    1838.2569    1923.6684    1366.6588     557.0096    195.01731   -249.61817     23461.94   0.69109889 
  127000       127000    1584.3503    1912.8702    1360.6288    552.24147    194.15685   -960.11212     23461.94   0.69109889 
  128000       128000    2477.3829    1949.2017    1406.5959    542.60574     200.7162    1543.6297     23461.94   0.69109889 
  129000       129000    2264.4926    1945.4672     1417.558    527.90914    202.28045    932.36411     23461.94   0.69109889 
  130000       130000     2049.074    1924.0185    1384.3453    539.67325    197.54111    365.47934     23461.94   0.69109889 
  131000       131000    1534.3028    1960.2775    1410.1899    550.08758    201.22904   -1244.9274     23461.94   0.69109889 
  132000       132000    1903.1237    1989.9608    1422.8012    567.15958    203.02863    -253.7846     23461.94   0.69109889 
  133000       133000    1990.7989      1970.24    1403.5483    566.69166    200.28131    60.084172     23461.94   0.69109889 
  134000       134000    1880.9278    1943.5042    1411.4626    532.04167    201.41065   -182.88204     23461.94   0.69109889 
  135000       135000     1629.444    1909.1529     1369.252    539.90089    195.38735    -817.4598     23461.94   0.69109889 
  136000       136000    2004.4757    1957.4456    1419.9222    537.52344    202.61781     137.4472     23461.94   0.69109889 
  137000       137000    2099.5503    1894.2787    1367.5003    526.77836    195.13739    599.91419     23461.94   0.69109889 
  138000       138000    1536.2057    1926.7519    1392.4901    534.26177    198.70335   -1141.3862     23461.94   0.69109889 
  139000       139000    1916.5083    1958.3457     1413.678     544.6677    201.72679   -122.27129     23461.94   0.69109889 
  140000       140000    2166.6391    1974.0482    1431.8003    542.24789    204.31278    562.85411     23461.94   0.69109889 
  141000       141000    2046.8096     1977.818    1399.1136    578.70448    199.64849    201.63051     23461.94   0.69109889 
  142000       142000    2293.8494    1897.5006    1376.1309    521.36969    196.36894    1158.3445     23461.94   0.69109889 
  143000       143000    1708.2027    1924.4146    1377.7306      546.684    196.59722   -631.88757     23461.94   0.69109889 
  144000       144000    1669.6001    2009.9918    1438.7042    571.28761    205.29794   -994.80782     23461.94   0.69109889 
  145000       145000    2612.8267    1907.6006    1400.9026    506.69798    199.90379    2061.0502     23461.94   0.69109889 
  146000       146000    1932.2713    2030.5901    1455.8263    574.76377     207.7412    -287.3404     23461.94   0.69109889 
  147000       147000    1541.2886    1963.3132    1437.5777    525.73549    205.13718    -1233.383     23461.94   0.69109889 
  148000       148000    2468.2384    1949.7486    1387.3668    562.38184    197.97226    1515.3063     23461.94   0.69109889 
  149000       149000    1654.0164    1963.5538    1450.1205    513.43324      206.927   -904.63489     23461.94   0.69109889 
  150000       150000     1527.064    1881.6586    1384.5495     497.1091    197.57025   -1036.3162     23461.94   0.69109889 
  151000       151000    1671.9058    1958.0667    1403.2512    554.81557    200.23891   -836.31627     23461.94   0.69109889 
  152000       152000    2270.5417    1995.0736    1428.8714    566.20227    203.89482    805.06596     23461.94   0.69109889 
  153000       153000    1625.4164    1932.9151    1394.4585    538.45655    198.98424   -898.67656     23461.94   0.69109889 
  154000       154000    2038.4789    1899.2525    1370.4226    528.82991     195.5544    406.89435     23461.94   0.69109889 
  155000       155000    2200.3747    1959.7448    1373.9104    585.83443    196.05209    703.24991     23461.94   0.69109889 
  156000       156000    1762.5002    1928.6445    1386.7588    541.88562    197.88552   -485.56277     23461.94   0.69109889 
  157000       157000    2399.5267    1996.9896    1420.8522    576.13736    202.75052    1176.4301     23461.94   0.69109889 
  158000       158000    1717.0798    1901.4301     1384.943    516.48713     197.6264   -538.77085     23461.94   0.69109889 
  159000       159000    1781.6621    1920.6298    1395.3504    525.27937    199.11151   -406.13847     23461.94   0.69109889 
  160000       160000    1739.2503    1983.9447    1409.0283    574.91643    201.06329   -715.12877     23461.94   0.69109889 
  161000       161000     1914.039    1991.2762    1414.0357    577.24045    201.77783   -225.72847     23461.94   0.69109889 
  162000       162000    2400.6053    1967.8731     1389.019    578.85409    198.20803    1264.6766     23461.94   0.69109889 
  163000       163000    1867.6989    1928.2661    1386.6169     541.6492    197.86527    -177.0102     23461.94   0.69109889 
  164000       164000    2490.1073    1931.8253    1407.5526    524.27274    200.85271    1631.6003     23461.94   0.69109889 
  165000       165000    2070.0923    1980.3277    1381.7851    598.54256    197.17579    262.34055     23461.94   0.69109889 
  166000       166000    2638.5689    1949.3803    1387.9835     561.3968    198.06027      2014.18     23461.94   0.69109889 
  167000       167000    1296.4456     1976.906     1432.837      544.069    204.46071   -1988.6715     23461.94   0.69109889 
  168000       168000    1942.5131    1972.3121    1422.6592    549.65286    203.00837   -87.088746     23461.94   0.69109889 
  169000       169000    2309.0603    1981.3109    1426.4099    554.90106    203.54358    957.85999     23461.94   0.69109889 
  170000       170000    2030.0089    1933.8064     1407.942    525.86445    200.90828    281.15553     23461.94   0.69109889 
  171000       171000    1555.6516    2001.4515    1436.4821    564.96944    204.98085   -1302.8673     23461.94   0.69109889 
  172000       172000    2199.9457    1912.9652    1376.1334    536.83178     196.3693    838.71169     23461.94   0.69109889 
  173000       173000    2431.1076    1959.1253     1435.829    523.29627    204.88766    1379.3861     23461.94   0.69109889 
  174000       174000    2200.6715    1915.2163    1375.9459    539.27039    196.34255     834.2537     23461.94   0.69109889 
  175000       175000    1834.3682    1948.7511     1439.233    509.51814    205.37339   -334.28843     23461.94   0.69109889 
  176000       176000    2471.9241    2008.4291    1452.6561    555.77299    207.28882    1354.5819     23461.94   0.69109889 
  177000       177000    1630.2948    1919.4353    1409.5833    509.85195    201.14249   -845.02406     23461.94   0.69109889 
  178000       178000    1861.2385    1958.3946    1405.4093    552.98537    200.54687   -283.94248     23461.94   0.69109889 
  179000       179000     1755.497    1910.3155    1387.7058    522.60963    198.02065   -452.46279     23461.94   0.69109889 
  180000       180000    2077.6912    1947.1436    1417.4005    529.74316    202.25797    381.53042     23461.94   0.69109889 
  181000       181000    1978.9642    1954.8666    1402.1435    552.72305    200.08085    70.426342     23461.94   0.69109889 
  182000       182000    1950.6088    1934.9517    1401.7541    533.19757    200.02529    45.758453     23461.94   0.69109889 
  183000       183000    2236.2404    1996.7633    1401.2259    595.53733    199.94992    699.88116     23461.94   0.69109889 
  184000       184000    2192.6314    1957.8517    1396.9088    560.94284    199.33388    686.15272     23461.94   0.69109889 
  185000       185000     2369.244    1951.7107    1408.1197    543.59099    200.93363     1220.257     23461.94   0.69109889 
  186000       186000    1741.9308    1933.8429    1411.9259    521.91704    201.47677   -560.87058     23461.94   0.69109889 
  187000       187000     1799.932     1939.643    1391.5743    548.06871    198.57266   -408.31079     23461.94   0.69109889 
  188000       188000    2190.3594    1948.3991    1420.7384    527.66068    202.73428    707.13827     23461.94   0.69109889 
  189000       189000    2211.8797     1949.055    1400.8962    548.15886    199.90286     768.1151     23461.94   0.69109889 
  190000       190000    1202.1671    1910.3578    1367.6111    542.74668     195.1532   -2069.7143     23461.94   0.69109889 
  191000       191000    2275.4562    1973.3394    1433.4771    539.86235    204.55204    882.94775     23461.94   0.69109889 
  192000       192000     2149.857    1987.7732    1445.2594    542.51375    206.23334    473.69619     23461.94   0.69109889 
  193000       193000    1697.5641    1917.7314    1385.0818    532.64966    197.64621   -643.44744     23461.94   0.69109889 
  194000       194000    1985.7424    1964.1849    1419.2552    544.92978    202.52263    63.002629     23461.94   0.69109889 
  195000       195000    2249.0439    1933.6227    1413.5177    520.10505    201.70391    921.83036     23461.94   0.69109889 
  196000       196000    2305.1332     1959.677    1395.6249    564.05202    199.15068    1009.6091     23461.94   0.69109889 
  197000       197000    1751.2125    1997.6447    1440.3911    557.25353    205.53866   -720.20753     23461.94   0.69109889 
  198000       198000    1551.3105    1926.3639    1371.5429    554.82099    195.71425   -1096.1076     23461.94   0.69109889 
  199000       199000    1942.9823    1960.7305    1437.2321    523.49842    205.08787    -51.86982     23461.94   0.69109889 
  200000       200000    1868.6433     1943.603    1395.0595     548.5435    199.06999   -219.07257     23461.94   0.69109889 
  201000       201000    2247.7953    1926.3676    1431.1936    495.17402     204.2262    939.38458     23461.94   0.69109889 
  202000       202000     1008.222    1956.6349     1400.708    555.92692    199.87601   -2771.7729     23461.94   0.69109889 
  203000       203000    1954.8843    1947.5521    1400.1962    547.35595    199.80298    21.428524     23461.94   0.69109889 
  204000       204000    1808.3132    1950.0089    1383.5961    566.41287     197.4342    -414.1111     23461.94   0.69109889 
  205000       205000    2537.1603    1955.4618    1424.2588    531.20298    203.23663    1700.0362     23461.94   0.69109889 
  206000       206000    1764.9879    1953.6601    1395.0747    558.58538    199.07216   -551.40173     23461.94   0.69109889 
  207000       207000    1597.9101    1894.1064    1383.7814    510.32507    197.46064   -865.64502     23461.94   0.69109889 
  208000       208000    1857.4899     1982.743    1444.3036    538.43946    206.09695   -366.05716     23461.94   0.69109889 
  209000       209000    2205.7881    1994.2373    1426.3723    567.86498    203.53822    618.26526     23461.94   0.69109889 
  210000       210000    1764.5155    1979.1685    1427.7887    551.37983    203.74033   -627.33148     23461.94   0.69109889 
  211000       211000     1514.882    1945.9453    1421.2578    524.68751    202.80839    -1259.799     23461.94   0.69109889 
  212000       212000    1861.2323    2031.1348    1437.3281    593.80669    205.10158   -496.54667     23461.94   0.69109889 
  213000       213000     1754.705    1986.0237    1413.8691    572.15452    201.75406   -676.03776     23461.94   0.69109889 
  214000       214000    1841.7294     1942.834    1380.2338    562.60022    196.95441    -295.4821     23461.94   0.69109889 
  215000       215000    2015.2919    1922.1491    1404.1812    517.96792    200.37162    272.21333     23461.94   0.69109889 
  216000       216000    2489.1933    2003.1297    1456.3897    546.73996     207.8216    1420.5393     23461.94   0.69109889 
  217000       217000    2012.8222    1949.4895     1393.801    555.68849    198.89041    185.09223     23461.94   0.69109889 
  218000       218000    2222.8961    1961.6631    1416.9802    544.68292    202.19799    763.46357     23461.94   0.69109889 
  219000       219000    2239.2067    1981.4766    1443.4425    538.03415    205.97407    753.22591     23461.94   0.69109889 
  220000       220000    1717.6206    1923.4605    1368.7084    554.75214    195.30978   -601.57504     23461.94   0.69109889 
  221000       221000    1815.2733    1932.8641    1375.7264    557.13776    196.31123   -343.66361     23461.94   0.69109889 
  222000       222000    2283.8809    1955.1621    1436.4156    518.74643    204.97137    960.69346     23461.94   0.69109889 
  223000       223000    1566.7664    1893.6157    1357.1729    536.44281    193.66371   -955.22965     23461.94   0.69109889 
  224000       224000    2202.2773    1957.5337    1399.3937    558.14001    199.68847    715.27256     23461.94   0.69109889 
  225000       225000    2264.3232    1927.0167    1371.3904    555.62634    195.69249    985.79102     23461.94   0.69109889 
  226000       226000    2059.2386    1917.5455    1383.6839     533.8616    197.44674    414.10324     23461.94   0.69109889 
  227000       227000    2646.2784    1942.6733     1390.995    551.67835       198.49    2056.3128     23461.94   0.69109889 
  228000       228000     1743.797    1953.3932    1421.4986    531.89458    202.84276   -612.55288     23461.94   0.69109889 
  229000       229000    2099.1218    1844.6966     1361.477     483.2196    194.27789     743.5674     23461.94   0.69109889 
  230000       230000    1817.3423    1948.3728    1400.9493    547.42345    199.91045   -382.94167     23461.94   0.69109889 
  231000       231000    2158.3985    1921.1804    1400.1396    521.04075    199.79491     693.2792     23461.94   0.69109889 
  232000       232000    1274.9989    1939.5759    1406.6345    532.94146     200.7217   -1942.2516     23461.94   0.69109889 
  233000       233000    2309.9745    1980.0184    1402.4613    577.55713     200.1262    964.30929     23461.94   0.69109889 
  234000       234000     1949.178    1881.0109    1346.8838    534.12705    192.19549    199.22116     23461.94   0.69109889 
  235000       235000    2054.3782    1918.4207    1390.3083    528.11244    198.39201    397.34092     23461.94   0.69109889 
  236000       236000    1871.6808    1973.5017    1435.5853    537.91641    204.85288   -297.57541     23461.94   0.69109889 
  237000       237000    1364.3891    2001.5988    1406.6433     594.9555    200.72296   -1862.2695     23461.94   0.69109889 
  238000       238000    1595.8642    1923.0881    1408.0246    515.06359    200.92006   -956.32442     23461.94   0.69109889 
  239000       239000    1757.1035    1937.1493    1397.8412    539.30806    199.46693   -526.19058     23461.94   0.69109889 
  240000       240000    1807.9127    1902.6496    1353.9686    548.68094    193.20647   -276.87224     23461.94   0.69109889 
  241000       241000    1589.3077    1991.5827    1431.5275    560.05521    204.27385   -1175.6641     23461.94   0.69109889 
  242000       242000    2573.3509    1958.6573    1398.5449    560.11245    199.56735    1796.4653     23461.94   0.69109889 
  243000       243000    1412.9344    1937.6313    1384.3348    553.29649    197.53962   -1533.4467     23461.94   0.69109889 
  244000       244000    1862.2644    1950.0859     1385.508    564.57789    197.70703   -256.66161     23461.94   0.69109889 
  245000       245000    1986.4027    1956.6849    1395.3601    561.32476    199.11289    86.851378     23461.94   0.69109889 
  246000       246000    2057.9383      1898.21    1371.6394    526.57061    195.72803    466.81195     23461.94   0.69109889 
  247000       247000     2235.524    1960.4367    1405.6756    554.76106    200.58487    803.95307     23461.94   0.69109889 
  248000       248000    2148.7804    1892.0952    1382.1414     509.9538    197.22663    750.17223     23461.94   0.69109889 
  249000       249000    2232.4356    1907.1288    1379.6858    527.44299    196.87622    950.72149     23461.94   0.69109889 
  250000       250000    1963.6083    1945.9057    1388.3279    557.57778    198.10941     51.73674     23461.94   0.69109889 
  251000       251000    1091.1048    1978.4922    1402.9588    575.53345    200.19719   -2593.4236     23461.94   0.69109889 
  252000       252000    2304.4984     1910.831    1393.9605    516.87047    198.91317     1150.508     23461.94   0.69109889 
  253000       253000    2993.8754    2010.1404    1454.8386     555.3018    207.60026    2875.0028     23461.94   0.69109889 
  254000       254000    1934.8529    1924.8303    1382.5141    542.31621    197.27981    29.291576     23461.94   0.69109889 
  255000       255000    1625.1529    1997.9522    1435.3712      562.581    204.82232     -1089.52     23461.94   0.69109889 
  256000       256000     2322.816    1945.8948    1382.7647    563.13012    197.31557    1101.5664     23461.94   0.69109889 
  257000       257000    2318.3576    2008.0464    1403.6601    604.38634    200.29726    906.89623     23461.94   0.69109889 
  258000       258000    2498.5016    1936.6881    1384.1657    552.52244    197.51549    1641.9214     23461.94   0.69109889 
  259000       259000    1897.0546    1994.0802    1439.5919    554.48827     205.4246   -283.56092     23461.94   0.69109889 
  260000       260000     1589.425    1984.0286    1444.4604    539.56823    206.11933   -1153.2443     23461.94   0.69109889 
  261000       261000    1423.3283    1882.8454    1382.6643    500.18111    197.30124    -1342.956     23461.94   0.69109889 
  262000       262000    1933.8426    1971.9738    1407.2693    564.70448    200.81229    -111.4399     23461.94   0.69109889 
  263000       263000    1493.4541    1954.9835    1411.1157    543.86782    201.36116   -1348.8373     23461.94   0.69109889 
  264000       264000    1961.7935    1983.0613    1439.5545    543.50678    205.41927   -62.155857     23461.94   0.69109889 
  265000       265000    1398.7297    1952.1247     1432.941    519.18368    204.47554   -1617.3178     23461.94   0.69109889 
  266000       266000    1863.7363    1892.4489    1395.9493    496.49966    199.19696   -83.913856     23461.94   0.69109889 
  267000       267000    2326.7324    1976.6062    1415.5234     561.0828    201.99011    1023.2572     23461.94   0.69109889 
  268000       268000    2247.4446    1944.7502    1372.3941    572.35613    195.83572    884.63594     23461.94   0.69109889 
  269000       269000    1916.4659    2022.4626     1458.826    563.63654    208.16925   -309.77945     23461.94   0.69109889 
  270000       270000    2042.1049    1912.2339    1389.8185    522.41543    198.32211    379.55291     23461.94   0.69109889 
  271000       271000    1762.5591    1978.1458    1397.1785    580.96731    199.37237   -630.06034     23461.94   0.69109889 
  272000       272000     1844.454    1942.6209    1420.1803    522.44063    202.65464   -286.89652     23461.94   0.69109889 
  273000       273000    2132.2506    1976.5851    1403.9897    572.59533    200.34431    454.93833     23461.94   0.69109889 
  274000       274000    1610.0418     1899.096    1358.6638    540.43219    193.87645   -844.77171     23461.94   0.69109889 
  275000       275000    2012.6039    1978.0436     1377.778    600.26556    196.60399    101.00384     23461.94   0.69109889 
  276000       276000    1703.1489     1943.582    1429.4264    514.15562    203.97403   -702.67506     23461.94   0.69109889 
  277000       277000    2645.4107    2000.5701    1430.9695    569.60059    204.19422    1884.5711     23461.94   0.69109889 
  278000       278000    1249.1873    1940.1254    1395.9059    544.21948    199.19077    -2019.293     23461.94   0.69109889 
  279000       279000    1762.6689    1948.1376    1416.8275    531.31014    202.17621   -542.03929     23461.94   0.69109889 
  280000       280000    2421.3474     1937.034    1359.6962    577.33787    194.02377    1415.4243     23461.94   0.69109889 
  281000       281000    2230.7408    1980.3539    1379.9747    600.37914    196.91745    731.76519     23461.94   0.69109889 
  282000       282000    1721.9881    1949.9922    1402.3269    547.66528    200.10702   -666.35049     23461.94   0.69109889 
  283000       283000    1555.1173    1953.5511    1400.3466    553.20453    199.82444    -1164.438     23461.94   0.69109889 
  284000       284000    1923.5453    1974.7354     1398.227    576.50833    199.52199   -149.60498     23461.94   0.69109889 
  285000       285000    1945.2567    1924.5106    1401.1236    523.38698    199.93532     60.63152     23461.94   0.69109889 
  286000       286000    1881.4418    1950.6819    1393.9331    556.74882    198.90926   -202.35707     23461.94   0.69109889 
  287000       287000    2216.6358    1948.9007    1425.6474    523.25333    203.43477    782.46618     23461.94   0.69109889 
  288000       288000    1928.6968    1918.6671    1392.4193    526.24787    198.69324    29.312126     23461.94   0.69109889 
  289000       289000    1688.1555    1986.3816    1443.3837    542.99785    205.96569    -871.5772     23461.94   0.69109889 
  290000       290000    1774.3578    1939.5368    1423.2543    516.28254    203.09329   -482.74216     23461.94   0.69109889 
  291000       291000    2152.0862    1980.8753    1432.1247    548.75053    204.35907    500.37055     23461.94   0.69109889 
  292000       292000    1813.0184    1942.4409    1407.7397    534.70121    200.87941   -378.24241     23461.94   0.69109889 
  293000       293000    2502.2618     1912.288    1374.1368    538.15118     196.0844    1724.2208     23461.94   0.69109889 
  294000       294000    2156.0122    1905.9972    1412.0421    493.95502    201.49335    730.67854     23461.94   0.69109889 
  295000       295000    2001.9013    1950.0526     1381.358    568.69452    197.11484    151.53003     23461.94   0.69109889 
  296000       296000    2376.1524    1867.0972    1356.7997    510.29752    193.61045    1487.7333     23461.94   0.69109889 
  297000       297000    2035.5289    1958.2125    1415.6682    542.54431    202.01078    225.96022     23461.94   0.69109889 
  298000       298000    1924.6284    1931.9997    1424.5827    507.41696    203.28285   -21.542748     23461.94   0.69109889 
  299000       299000    2070.5867    1990.7348    1413.6414    577.09337    201.72157    233.37033     23461.94   0.69109889 
  300000       300000    2204.3074    1948.1904    1399.3742    548.81623    199.68568    748.51163     23461.94   0.69109889 
  301000       301000    2326.5415    1911.1396    1369.6271    541.51255    195.44087     1214.028     23461.94   0.69109889 
  302000       302000    1746.0335    2027.7803    1426.0785    601.70174     203.4963   -823.41577     23461.94   0.69109889 
  303000       303000    2134.2964    1911.8084    1371.5809    540.22743    195.71968    650.22973     23461.94   0.69109889 
  304000       304000    1898.2063    1964.9613    1430.6796    534.28168    204.15285   -195.09407     23461.94   0.69109889 
  305000       305000    1569.8769    1904.5627    1366.1732    538.38949    194.94802     -978.132     23461.94   0.69109889 
  306000       306000     1824.032    1947.2432    1399.7795    547.46366    199.74352   -360.08931     23461.94   0.69109889 
  307000       307000    1570.8847    1980.4625    1413.6006    566.86194    201.71574   -1197.0067     23461.94   0.69109889 
  308000       308000    1975.7311    1903.4518     1385.063    518.38889    197.64352    211.23883     23461.94   0.69109889 
  309000       309000    1686.5946    1957.1242    1407.8678    549.25637    200.89769   -790.63309     23461.94   0.69109889 
  310000       310000     1803.614    1926.6278     1439.223    487.40483    205.37197   -359.51274     23461.94   0.69109889 
  311000       311000    1787.7882    1883.7232    1414.8689    468.85427    201.89672   -280.37346     23461.94   0.69109889 
  312000       312000    1853.3678    1940.9332    1398.5422    542.39104    199.56696    -255.9133     23461.94   0.69109889 
  313000       313000    2345.3185    1890.0583    1379.3563    510.70205     196.8292    1330.5154     23461.94   0.69109889 
  314000       314000    2169.8678    1951.7804    1402.8976    548.88279    200.18846     637.3688     23461.94   0.69109889 
  315000       315000    2282.5714     1983.579    1439.9028     543.6762    205.46897    873.81669     23461.94   0.69109889 
  316000       316000    2297.2113    1923.0564    1424.1888    498.86765    203.22664    1093.4819     23461.94   0.69109889 
  317000       317000     2480.175    1971.2765    1414.8606    556.41589    201.89554    1487.2753     23461.94   0.69109889 
  318000       318000    2315.1767    1988.1594    1419.1743    568.98514    202.51108    955.72052     23461.94   0.69109889 
  319000       319000    1603.5351     1917.803    1375.5532    542.24974    196.28652   -918.45984     23461.94   0.69109889 
  320000       320000    1852.0204    1904.6625    1388.0921    516.57042    198.07576    -153.8486     23461.94   0.69109889 
  321000       321000    2079.0306    1947.4379    1412.3189    535.11903    201.53284    384.58468     23461.94   0.69109889 
  322000       322000    2143.1956    1940.8864    1404.6881    536.19828    200.44396    591.25655     23461.94   0.69109889 
  323000       323000    2195.7635    1973.2259    1413.9719    559.25401    201.76873    650.37434     23461.94   0.69109889 
  324000       324000    1973.2708    1975.1879    1395.1239    580.06405    199.07918   -5.6028949     23461.94   0.69109889 
  325000       325000    1941.0312    1945.2093    1420.9707    524.23863    202.76743    -12.21079     23461.94   0.69109889 
  326000       326000    2041.6219    1917.5884    1434.0468    483.54165    204.63334    362.49248     23461.94   0.69109889 
  327000       327000    1812.2646     1999.138     1463.077    536.06099    208.77585   -546.14464     23461.94   0.69109889 
  328000       328000    2483.0618     1924.537    1386.9123    537.62469    197.90741    1632.3102     23461.94   0.69109889 
  329000       329000    2471.2237    2012.5537    1440.9425    571.61115    205.61733    1340.4808     23461.94   0.69109889 
  330000       330000    2284.3208    1965.2472    1411.5614    553.68577    201.42475    932.50479     23461.94   0.69109889 
  331000       331000    2025.5008     1931.531    1399.6656    531.86541    199.72727    274.63034     23461.94   0.69109889 
  332000       332000    1846.2884     1956.643    1407.0144    549.62856    200.77591   -322.51551     23461.94   0.69109889 
  333000       333000    1131.7281    1904.0233    1406.9764    497.04683     200.7705    -2257.062     23461.94   0.69109889 
  334000       334000    2050.1917    1969.3416    1422.6074    546.73428    203.00097    236.28747     23461.94   0.69109889 
  335000       335000    2400.1261    1991.9155    1423.5564    568.35903     203.1364    1193.0112     23461.94   0.69109889 
  336000       336000    1877.2562    1941.0262    1390.7901    550.23609    198.46076   -186.37017     23461.94   0.69109889 
  337000       337000    2155.3493     1891.853     1382.282    509.57095    197.24669    770.07803     23461.94   0.69109889 
  338000       338000    1973.1126     1959.197    1398.1683    561.02869    199.51361    40.668933     23461.94   0.69109889 
  339000       339000    1980.8037    1919.8357    1370.5408    549.29493    195.57126     178.1812     23461.94   0.69109889 
  340000       340000    2392.7068    1929.1857    1412.5813    516.60437    201.57029    1354.6582     23461.94   0.69109889 
  341000       341000    1827.3786    1947.9571    1415.6426    532.31449    202.00713   -352.39523     23461.94   0.69109889 
  342000       342000    1816.0298    1893.1107    1361.0153    532.09548      194.212   -225.27196     23461.94   0.69109889 
  343000       343000     1862.671    1913.8858    1412.6253    501.26053    201.57657   -149.67733     23461.94   0.69109889 
  344000       344000    2021.6774    1984.2156    1423.7637    560.45188    203.16598    109.48343     23461.94   0.69109889 
  345000       345000    2139.1513    1916.5966     1390.481    526.11558    198.41665    650.42469     23461.94   0.69109889 
  346000       346000    1856.2602    1988.0448    1429.0284    559.01641    203.91723   -385.14536     23461.94   0.69109889 
  347000       347000    1963.3699    1943.1139    1405.5269    537.58703    200.56365    59.198984     23461.94   0.69109889 
  348000       348000    2239.6737    2000.6188    1410.9839    589.63495    201.34234    698.64698     23461.94   0.69109889 
  349000       349000    2165.9551    1972.7819     1408.245    564.53693    200.95151    564.55619     23461.94   0.69109889 
  350000       350000    1894.2952     1962.066    1381.8668    580.19915    197.18745   -198.06277     23461.94   0.69109889 
  351000       351000    1910.9685    1938.1261    1391.6727    546.45341     198.5867   -79.369011     23461.94   0.69109889 
  352000       352000     2145.168    1942.9156    1417.8865    525.02905    202.32732    591.09048     23461.94   0.69109889 
  353000       353000    1614.0229    1892.5036    1398.6018    493.90178    199.57547    -813.8704     23461.94   0.69109889 
  354000       354000    1355.5217    1953.6867    1398.8995    554.78721    199.61795   -1748.1599     23461.94   0.69109889 
  355000       355000    2562.1706    1983.5541    1406.9429    576.61119    200.76572    1691.0286     23461.94   0.69109889 
  356000       356000    1989.2997    1923.5077    1388.8015    534.70615      198.177    192.27954     23461.94   0.69109889 
  357000       357000    2382.6493    2011.5668    1434.6112    576.95556    204.71388     1084.503     23461.94   0.69109889 
  358000       358000    2142.5603    1960.6512    1432.6363    528.01492    204.43207    531.63632     23461.94   0.69109889 
  359000       359000    1851.5282    1901.8698    1383.7258    518.14402    197.45272   -147.12542     23461.94   0.69109889 
  360000       360000    1976.1437    1966.4439    1429.6547    536.78915    204.00661    28.348094     23461.94   0.69109889 
  361000       361000    2667.9249    1926.8859     1402.195    524.69091     200.0882    2165.7147     23461.94   0.69109889 
  362000       362000    2256.6875    1923.3917     1409.073    514.31872    201.06967    974.06948     23461.94   0.69109889 
  363000       363000    1444.0674    2005.4489    1454.9806    550.46828    207.62053   -1640.6589     23461.94   0.69109889 
  364000       364000    1405.7096    1922.1295    1363.6781     558.4514    194.59198    -1509.257     23461.94   0.69109889 
  365000       365000    2316.9498    1885.0892    1380.6787    504.41054     197.0179     1262.129     23461.94   0.69109889 
  366000       366000    2165.0276    1922.3934    1393.6797    528.71366     198.8731    709.10788     23461.94   0.69109889 
  367000       367000    1642.5355    1969.0989     1412.067     557.0319     201.4969   -954.39406     23461.94   0.69109889 
  368000       368000    1497.3259    1954.0767    1438.9427    515.13399    205.33197   -1334.8716     23461.94   0.69109889 
  369000       369000    1757.3456     1882.537    1358.9936     523.5434    193.92352   -365.87662     23461.94   0.69109889 
  370000       370000    2030.4205    1955.3733    1406.2433       549.13    200.66588     219.3283     23461.94   0.69109889 
  371000       371000    1548.2377    1912.8267     1376.809    536.01769    196.46571   -1065.5252     23461.94   0.69109889 
  372000       372000    2410.7388    1929.1888    1389.1334    540.05541    198.22436    1407.3482     23461.94   0.69109889 
  373000       373000    1779.5521    1966.0494    1399.3134    566.73593    199.67702    -545.0453     23461.94   0.69109889 
  374000       374000    2056.6198    1976.6427    1421.0253    555.61741    202.77521    233.73632     23461.94   0.69109889 
  375000       375000    1998.5406      1932.96    1401.9565    531.00352    200.05417    191.66155     23461.94   0.69109889 
  376000       376000    1556.6082    2013.2447    1410.9999    602.24482    201.34463   -1334.5376     23461.94   0.69109889 
  377000       377000    1581.6886     1926.663    1400.9418    525.72113    199.90938   -1008.2008     23461.94   0.69109889 
  378000       378000    1836.2348    1988.7426    1445.2057    543.53688    206.22568   -445.70982     23461.94   0.69109889 
  379000       379000    2319.7744    1916.8923     1400.762    516.13032    199.88372    1177.4383     23461.94   0.69109889 
  380000       380000    2010.7457    1933.8376    1429.1815    504.65609    203.93908    224.76704     23461.94   0.69109889 
  381000       381000    1510.1791    1969.0889    1412.7549    556.33395    201.59507   -1341.1813     23461.94   0.69109889 
  382000       382000     1645.746    1958.5577    1395.8273    562.73035    199.17956   -914.20399     23461.94   0.69109889 
  383000       383000    1374.8534     1917.578    1403.8668    513.71118    200.32677   -1586.1335     23461.94   0.69109889 
  384000       384000    2258.7635    1953.9591    1401.6986    552.26051    200.01737    890.80252     23461.94   0.69109889 
  385000       385000    2144.7666    1911.7157    1379.8003     531.9154    196.89256    681.09991     23461.94   0.69109889 
  386000       386000    1251.5574     1995.379    1424.6308     570.7482    203.28971    -2173.847     23461.94   0.69109889 
  387000       387000    1847.5421    1933.0546    1422.8051    510.24945    203.02919   -249.91353     23461.94   0.69109889 
  388000       388000     1852.228    1879.6775    1380.2944    499.38312    196.96306   -80.222131     23461.94   0.69109889 
  389000       389000     1732.671    1924.6049    1373.8222    550.78274     196.0395   -560.93405     23461.94   0.69109889 
  390000       390000    1688.9501    2016.2313     1480.438     535.7933     211.2532   -956.49196     23461.94   0.69109889 
  391000       391000    1732.6817    1987.5006     1400.003    587.49758    199.77542   -744.71808     23461.94   0.69109889 
  392000       392000    1486.6394    1909.6298    1372.4943    537.13546    195.85002   -1236.2054     23461.94   0.69109889 
  393000       393000    1706.5883    1901.0596    1389.3732    511.68641    198.25858   -568.34987     23461.94   0.69109889 
  394000       394000    1873.6881    1974.8743     1416.642    558.23227    202.14974   -295.72056     23461.94   0.69109889 
  395000       395000     1852.306    2011.6621    1433.9235     577.7386    204.61575   -465.72414     23461.94   0.69109889 
  396000       396000    1984.5178    1944.0399    1388.2381     555.8018    198.09661    118.29815     23461.94   0.69109889 
  397000       397000    1896.7233    1989.4296    1383.5214    605.90818    197.42354   -270.93769     23461.94   0.69109889 
  398000       398000    1432.2166    1890.8227    1373.3272    517.49556    195.96887   -1340.2938     23461.94   0.69109889 
  399000       399000    1974.7164    1913.6391    1374.7958     538.8433    196.17844    178.50087     23461.94   0.69109889 
  400000       400000    1966.8131    1997.0242    1417.3218    579.70239    202.24675   -88.293257     23461.94   0.69109889 
  401000       401000    1637.4461    1924.1491    1389.6307    534.51836    198.29533   -837.90046     23461.94   0.69109889 
  402000       402000    1854.2432    1978.0374     1404.212    573.82541    200.37602   -361.79338     23461.94   0.69109889 
  403000       403000    1603.9586     1968.067    1430.0477    538.01937    204.06268   -1064.1207     23461.94   0.69109889 
  404000       404000     1211.269    1926.9995    1421.7412    505.25834    202.87738   -2091.7497     23461.94   0.69109889 
  405000       405000    2168.6024    1897.7447    1386.0666    511.67811    197.78674    791.59186     23461.94   0.69109889 
  406000       406000    2129.3567     1945.989    1417.2555    528.73351    202.23728    535.89906     23461.94   0.69109889 
  407000       407000    2123.4075     1950.361    1396.1335     554.2275    199.22324      505.735     23461.94   0.69109889 
  408000       408000    1905.9245    1966.4204    1412.0155     554.4049    201.48955   -176.80158     23461.94   0.69109889 
  409000       409000    1693.0689    1961.2581    1431.7545    529.50357    204.30624   -783.79296     23461.94   0.69109889 
  410000       410000    1879.8756    1947.4052    1420.5743    526.83091    202.71086   -197.35788     23461.94   0.69109889 
  411000       411000    1733.0923    1983.5273    1402.6818    580.84557    200.15766    -731.9059     23461.94   0.69109889 
  412000       412000    2044.8861    1994.3971    1403.8351    590.56195    200.32224    147.55603     23461.94   0.69109889 
  413000       413000    2267.4704    1963.2701    1406.6277     556.6424    200.72073      889.037     23461.94   0.69109889 
  414000       414000    2083.5806    1955.0304    1414.4555    540.57497    201.83773    375.69277     23461.94   0.69109889 
  415000       415000    1934.4093    1941.8039    1431.8554    509.94845    204.32064   -21.610932     23461.94   0.69109889 
  416000       416000    2275.9657    1928.6089    1436.9103    491.69864    205.04195    1015.1635     23461.94   0.69109889 
  417000       417000    1959.9467    1948.3253    1388.6739    559.65147    198.15878     33.96404     23461.94   0.69109889 
  418000       418000    2059.1048    1979.8596    1426.0476    553.81202    203.49189     231.5969     23461.94   0.69109889 
  419000       419000    1925.5872    1919.6261    1389.3772    530.24888    198.25915     17.42139     23461.94   0.69109889 
  420000       420000    2155.6261    1992.1706    1445.2577    546.91288     206.2331     477.7047     23461.94   0.69109889 
  421000       421000    2330.1006    1956.2916    1426.7018    529.58971    203.58524    1092.4713     23461.94   0.69109889 
  422000       422000     2128.369    1923.5955    1409.1949    514.40062    201.08706    598.45836     23461.94   0.69109889 
  423000       423000    1927.5076    1965.5889     1408.174    557.41494    200.94138   -111.29399     23461.94   0.69109889 
  424000       424000    2642.0219    2004.1944    1446.4798    557.71463    206.40749    1864.0751     23461.94   0.69109889 
  425000       425000    1978.3639    1960.1503    1403.1989    556.95134    200.23146    53.230151     23461.94   0.69109889 
  426000       426000    1746.2851    1944.7612     1397.521    547.24017    199.42124   -580.05382     23461.94   0.69109889 
  427000       427000    1565.4009      1929.32    1408.9382    520.38172    201.05044   -1063.5674     23461.94   0.69109889 
  428000       428000     1270.684    1922.6787    1378.1241    544.55458    196.65338   -1905.4795     23461.94   0.69109889 
  429000       429000     2132.099    1939.6222    1399.5684     540.0538    199.71339    562.52072     23461.94   0.69109889 
  430000       430000    1947.8354    1907.6231    1386.6775    520.94563    197.87391    117.52192     23461.94   0.69109889 
  431000       431000    2365.0818     2022.504    1438.0053    584.49874     205.1982    1001.1967     23461.94   0.69109889 
  432000       432000    2171.9619    1927.0735    1379.1798    547.89373    196.80402    715.69548     23461.94   0.69109889 
  433000       433000    1209.5555     1921.034    1396.9243    524.10972    199.33609   -2079.3229     23461.94   0.69109889 
  434000       434000    2316.0465    2010.8919    1434.6984    576.19345    204.72633    891.82613     23461.94   0.69109889 
  435000       435000    1723.2044    1930.7621    1403.8182    526.94393    200.31982   -606.59524     23461.94   0.69109889 
  436000       436000     2168.052    1987.4882    1447.9451    539.54311    206.61657    527.70461     23461.94   0.69109889 
  437000       437000    2046.9036    1924.8805    1383.6865      541.194     197.4471    356.61719     23461.94   0.69109889 
  438000       438000    1962.4609    1939.7236    1401.6227    538.10091    200.00654    66.450664     23461.94   0.69109889 
  439000       439000    1855.1754    1946.8369    1397.0015    549.83548     199.3471   -267.88427     23461.94   0.69109889 
  440000       440000    1682.8412    1933.1577    1407.3519    525.80582    200.82408   -731.55956     23461.94   0.69109889 
  441000       441000     2034.809    1981.1926    1427.9156      553.277    203.75844    156.69588     23461.94   0.69109889 
  442000       442000     1980.307    1939.8546    1407.3801    532.47453    200.82809    118.22385     23461.94   0.69109889 
  443000       443000    1948.7977    1951.5674     1422.362    529.20539    202.96597   -8.0947483     23461.94   0.69109889 
  444000       444000    1615.1134    1863.2953     1386.907    476.38825    197.90666   -725.32092     23461.94   0.69109889 
  445000       445000    2121.7532    1929.0867    1388.7781    540.30864    198.17365    563.07524     23461.94   0.69109889 
  446000       446000    1779.9595    1912.6901    1373.5088    539.18133    195.99478   -387.91018     23461.94   0.69109889 
  447000       447000    1747.4439    1936.2335    1379.0415    557.19204    196.78428    -551.7448     23461.94   0.69109889 
  448000       448000    1752.5013    1926.1775    1401.2133    524.96417    199.94812    -507.5753     23461.94   0.69109889 
  449000       449000    1739.7909     1879.432    1382.6104    496.82162    197.29355   -408.10651     23461.94   0.69109889 
  450000       450000    1904.1664    1974.0626    1412.2468    561.81584    201.52255   -204.27437     23461.94   0.69109889 
  451000       451000    2112.7233    1938.6127    1437.4586    501.15413    205.12019    508.84485     23461.94   0.69109889 
  452000       452000    2247.3291    1970.1178     1426.153    543.96472    203.50693    810.16059     23461.94   0.69109889 
  453000       453000    2655.0542      1949.85    1426.9083    522.94167    203.61471    2060.9862     23461.94   0.69109889 
  454000       454000    1763.0142    1984.5142    1424.5439    559.97032    203.27731   -647.34212     23461.94   0.69109889 
  455000       455000    1700.9879    1896.1001     1382.928    513.17211    197.33887   -570.22285     23461.94   0.69109889 
  456000       456000    2453.6113    1995.3791    1401.5365    593.84269    199.99423    1339.2009     23461.94   0.69109889 
  457000       457000    2124.3498    1922.1824    1400.2914    521.89103    199.81657    590.84194     23461.94   0.69109889 
  458000       458000    2412.9843    1928.6277    1401.5524    527.07534     199.9965    1415.5505     23461.94   0.69109889 
  459000       459000    2149.0463    1894.1241    1399.2708    494.85328    199.67093    745.01991     23461.94   0.69109889 
  460000       460000    2286.8702    1993.9919    1417.3409    576.65096    202.24947    855.94824     23461.94   0.69109889 
  461000       461000    1745.6889    1914.3867    1376.4422    537.94445    196.41338   -493.02571     23461.94   0.69109889 
  462000       462000    2368.0214    1990.7893    1418.0994    572.68993     202.3577    1102.4751     23461.94   0.69109889 
  463000       463000    1827.6995    2022.6672    1439.3568    583.31042    205.39106   -569.80062     23461.94   0.69109889 
  464000       464000    1800.1065    1922.5543     1383.352    539.20234    197.39938   -357.85837     23461.94   0.69109889 
  465000       465000    2251.1755    1987.1222    1424.1843    562.93789    203.22599    771.70608     23461.94   0.69109889 
  466000       466000    1481.8826    1910.2171    1378.4724    531.74469    196.70307   -1251.8238     23461.94   0.69109889 
  467000       467000    1837.2892    1940.7853    1416.4911    524.29419     202.1282   -302.47111     23461.94   0.69109889 
  468000       468000    2023.4197      1901.37    1398.6032    502.76678    199.57567     356.6947     23461.94   0.69109889 
  469000       469000    1718.3022    1964.7162    1403.5506    561.16564    200.28164   -720.15431     23461.94   0.69109889 
  470000       470000    2100.0904    1906.3457     1389.342    517.00379    198.25412    566.22611     23461.94   0.69109889 
  471000       471000     2418.968    1994.3246    1448.8664    545.45821    206.74804    1241.0365     23461.94   0.69109889 
  472000       472000    2138.7282    1948.8732      1457.16    491.71313    207.93152    554.85854     23461.94   0.69109889 
  473000       473000    1739.1437    1925.2167    1382.7733    542.44337     197.3168   -543.80545     23461.94   0.69109889 
  474000       474000    2024.6873    1943.3129    1406.5587    536.75414    200.71089    237.81988     23461.94   0.69109889 
  475000       475000    1889.2274    1954.4839     1422.933    531.55089    203.04745   -190.71473     23461.94   0.69109889 
  476000       476000    1858.8495     1914.544    1385.8503    528.69374    197.75587   -162.76953     23461.94   0.69109889 
  477000       477000    2316.5975    1870.3157    1361.6062    508.70953    194.29632    1304.2756     23461.94   0.69109889 
  478000       478000    1624.6813    1956.2189    1394.0625    562.15646    198.92772   -968.93139     23461.94   0.69109889 
  479000       479000    1704.8476    1888.4747     1356.667    531.80778    193.59151   -536.65732     23461.94   0.69109889 
  480000       480000    2195.2359    1904.5415    1368.5837    535.95776    195.29199    849.56563     23461.94   0.69109889 
  481000       481000    2062.9971    1950.0553    1405.1025    544.95284    200.50309    330.07652     23461.94   0.69109889 
  482000       482000    1900.9224    1829.6913    1314.5988     515.0925    187.58854    208.17565     23461.94   0.69109889 
  483000       483000    2078.0957     1961.704     1419.756    541.94803    202.59409    340.15921     23461.94   0.69109889 
  484000       484000    2039.2092    1920.7908    1376.2526    544.53826    196.38631    346.08238     23461.94   0.69109889 
  485000       485000    1905.0571    1935.4942    1393.7957    541.69853    198.88965   -88.953856     23461.94   0.69109889 
  486000       486000    1635.8935    1956.9698    1405.8164    551.15343    200.60496   -938.35781     23461.94   0.69109889 
  487000       487000    1990.6756    1958.5196    1392.9156    565.60395    198.76407    93.977037     23461.94   0.69109889 
  488000       488000    1496.3587    1957.1267    1414.4871    542.63964    201.84224    -1346.612     23461.94   0.69109889 
  489000       489000    2191.6227     1968.631    1463.5872    505.04378    208.84865    651.70189     23461.94   0.69109889 
  490000       490000    2032.0708    1941.2929    1392.5307    548.76219    198.70914    265.30193     23461.94   0.69109889 
  491000       491000    1870.7957    1901.9292    1403.2253    498.70389    200.23522   -90.988616     23461.94   0.69109889 
  492000       492000    1983.9579    1954.2867    1439.3344    514.95233    205.38786    86.715101     23461.94   0.69109889 
  493000       493000     1789.696    1957.6056    1414.2824    543.32319    201.81303   -490.72211     23461.94   0.69109889 
  494000       494000    2007.1683     1917.597    1388.9382     528.6588     198.1965    261.77568     23461.94   0.69109889 
  495000       495000    2244.2904    2058.9325    1443.5926    615.33988    205.99549    541.71551     23461.94   0.69109889 
  496000       496000    2042.5576    1922.7782    1389.6776    533.10061    198.30201     350.0598     23461.94   0.69109889 
  497000       497000    2258.9666    1967.7167    1364.5587    603.15795    194.71764    851.18914     23461.94   0.69109889 
  498000       498000    2305.9467    1933.5245    1397.9987    535.52577     199.4894    1088.4181     23461.94   0.69109889 
  499000       499000    2128.3843    1978.2863    1434.8388     543.4475    204.74636    438.66712     23461.94   0.69109889 
  500000       500000    1506.3244    1967.1691    1390.7931      576.376     198.4612   -1346.8362     23461.94   0.69109889 
  501000       501000    2385.9222    1950.4837    1401.9904     548.4933      200.059    1272.5856     23461.94   0.69109889 
  502000       502000    1816.9871    1935.4461     1372.137    563.30911    195.79904   -346.20106     23461.94   0.69109889 
  503000       503000    1593.8156    1962.0212    1443.7331    518.28809    206.01554   -1076.0949     23461.94   0.69109889 
  504000       504000    1989.6014    1919.7387    1352.1097    567.62898    192.94122    204.17628     23461.94   0.69109889 
  505000       505000     2314.554    1952.0218    1413.0652    538.95655    201.63935    1059.5143     23461.94   0.69109889 
  506000       506000    2339.5112    2014.5274    1434.8824    579.64499    204.75258     949.7775     23461.94   0.69109889 
  507000       507000    1562.8127     1946.521    1390.8829     555.6381    198.47401   -1121.4021     23461.94   0.69109889 
  508000       508000    2063.2543     1962.104    1416.6681    545.43594    202.15346    295.61563     23461.94   0.69109889 
  509000       509000    2466.6052    2022.1297    1469.6273    552.50235    209.71056    1298.9967     23461.94   0.69109889 
  510000       510000    1967.2815    1902.5345    1367.3827     535.1518    195.12061    189.22563     23461.94   0.69109889 
  511000       511000    1641.3769    1926.8585    1407.0015    519.85704    200.77407   -834.33097     23461.94   0.69109889 
  512000       512000      1529.33    1976.2629    1388.7155    587.54743    198.16472   -1306.1784     23461.94   0.69109889 
  513000       513000     2058.056    1964.5229    1425.3773    539.14564    203.39623    273.35383     23461.94   0.69109889 
  514000       514000    2320.4006    1921.9205    1393.7924    528.12816    198.88918    1164.5731     23461.94   0.69109889 
  515000       515000    1848.8144    1992.8384    1411.5279    581.31045    201.41998   -420.91557     23461.94   0.69109889 
  516000       516000    1364.7761    1910.1775    1404.2214    505.95609    200.37736   -1593.9563     23461.94   0.69109889 
  517000       517000    1518.6093    1964.8604    1400.5509    564.30951     199.8536   -1304.1859     23461.94   0.69109889 
  518000       518000    1771.1938    1934.8536    1379.7761    555.07752     196.8891   -478.30197     23461.94   0.69109889 
  519000       519000    1811.3364    1956.9256    1395.5007    561.42499    199.13294   -425.49002     23461.94   0.69109889 
  520000       520000     2103.003    1971.0646    1393.5894    577.47523    198.86021    385.59505     23461.94   0.69109889 
  521000       521000    1886.9377    1938.4491    1428.5813    509.86775    203.85344   -150.54388     23461.94   0.69109889 
  522000       522000    2189.7583    1950.0663    1394.0891    555.97725    198.93152    700.50909     23461.94   0.69109889 
  523000       523000    2248.2073    1986.4657     1427.535     558.9307    203.70412    764.94993     23461.94   0.69109889 
  524000       524000    2293.0011    1983.7245    1413.4053    570.31923    201.68787    903.87262     23461.94   0.69109889 
  525000       525000    1763.7111    1947.5452    1405.4699    542.07532    200.55552   -537.26207     23461.94   0.69109889 
  526000       526000    1711.1749    1990.4633    1412.5662    577.89714    201.56813   -816.23101     23461.94   0.69109889 
  527000       527000    1882.1209    1970.9592     1437.029    533.93015    205.05889   -259.63319     23461.94   0.69109889 
  528000       528000    2234.9356    1844.5524    1335.0646    509.48778    190.50894    1140.9097     23461.94   0.69109889 
  529000       529000    2307.3608    1947.3226    1411.6022    535.72042    201.43058    1052.2253     23461.94   0.69109889 
  530000       530000    2026.6681    1979.1383      1401.91    577.22824    200.04754    138.90765     23461.94   0.69109889 
  531000       531000    2072.1185    1918.6425    1385.3719    533.27059     197.6876    448.53949     23461.94   0.69109889 
  532000       532000    2188.6149    1969.6267    1415.9691    553.65751    202.05372    640.00137     23461.94   0.69109889 
  533000       533000    1903.5126    1909.5374    1384.7472    524.79019    197.59846   -17.607528     23461.94   0.69109889 
  534000       534000    2501.8128     1982.856    1452.6224    530.23352    207.28402    1516.6713     23461.94   0.69109889 
  535000       535000    1784.2978    1879.5721    1354.7203    524.85182    193.31374   -278.44287     23461.94   0.69109889 
  536000       536000    1428.0033    1947.4287    1391.5954    555.83332    198.57567   -1518.0404     23461.94   0.69109889 
  537000       537000    1914.7657    1927.8976    1385.4822    542.41535    197.70335   -38.378445     23461.94   0.69109889 
  538000       538000    1843.1855    1890.4694     1399.475    490.99438    199.70007   -138.18875     23461.94   0.69109889 
  539000       539000    2309.9494     1979.069    1397.3245    581.74446     199.3932    967.01052     23461.94   0.69109889 
  540000       540000    2131.7491    1921.1776    1402.0072    519.17048     200.0614    615.40328     23461.94   0.69109889 
  541000       541000    1993.4181    1964.9631    1414.6035    550.35952    201.85886    83.160926     23461.94   0.69109889 
  542000       542000    1470.8972    1905.0769     1380.461    524.61587    196.98684   -1268.9067     23461.94   0.69109889 
  543000       543000    2041.0012    1927.6261    1384.0611      543.565    197.50055    331.34329     23461.94   0.69109889 
  544000       544000    2437.9491    2010.4114    1427.0641    583.34739    203.63693    1249.4952     23461.94   0.69109889 
  545000       545000    1658.9771    1895.3884    1383.2018    512.18662    197.37794   -690.92098     23461.94   0.69109889 
  546000       546000     1622.787    1913.3326    1398.0227    515.30994    199.49283   -849.13073     23461.94   0.69109889 
  547000       547000    2226.7515    1983.1577    1425.2749    557.88274    203.38163    711.91214     23461.94   0.69109889 
  548000       548000     1498.831    1899.6413    1368.0529    531.58846    195.21624   -1171.3835     23461.94   0.69109889 
  549000       549000     1726.669    1964.5941    1405.3219    559.27222     200.5344   -695.34514     23461.94   0.69109889 
  550000       550000    2072.1559    1929.8951    1385.0683    544.82677    197.64428    415.76278     23461.94   0.69109889 
  551000       551000      1310.45    1919.7305    1406.6113    513.11925    200.71839   -1780.6457     23461.94   0.69109889 
  552000       552000    1961.3135    1951.2193     1390.543     560.6763    198.42551    29.500635     23461.94   0.69109889 
  553000       553000    2040.7644    1922.4368    1376.8228    545.61403    196.46768    345.81698     23461.94   0.69109889 
  554000       554000    2185.8286    1987.4344    1394.9008     592.5336    199.04734    579.81458     23461.94   0.69109889 
  555000       555000      1717.91     1906.239    1391.8998    514.33919    198.61912   -550.39866     23461.94   0.69109889 
  556000       556000    2075.7285     1954.586    1400.6904    553.89565     199.8735    354.04366     23461.94   0.69109889 
  557000       557000    1483.3251    1928.8759    1372.0552    556.82068    195.78736   -1302.1393     23461.94   0.69109889 
  558000       558000    1601.4037    1955.8519    1420.9128    534.93906    202.75917   -1035.8884     23461.94   0.69109889 
  559000       559000    1889.8396    1890.4307    1365.8919    524.53876    194.90788   -1.7273373     23461.94   0.69109889 
  560000       560000    2143.4863    1928.1768    1383.6328    544.54395    197.43945    629.25032     23461.94   0.69109889 
  561000       561000    2072.1586    1989.8174    1423.4294    566.38795    203.11828    240.64541     23461.94   0.69109889 
  562000       562000    1890.1819     1924.848    1368.1392    556.70883    195.22856   -101.31287     23461.94   0.69109889 
  563000       563000    1948.7064    1889.8393    1406.7059    483.13333     200.7319    172.04155     23461.94   0.69109889 
  564000       564000    1537.2368     1953.597    1406.3893    547.20766    200.68671   -1216.8284     23461.94   0.69109889 
  565000       565000    2127.1884    1916.8975    1384.5187    532.37884    197.56585    614.58318     23461.94   0.69109889 
  566000       566000    2170.6679    1954.8493    1392.0017    562.84767    198.63365    630.73807     23461.94   0.69109889 
  567000       567000    1865.0384    1933.2821    1397.4654    535.81668    199.41331   -199.44493     23461.94   0.69109889 
  568000       568000    2191.1272    1990.1487    1396.4753    593.67339    199.27203    587.36732     23461.94   0.69109889 
  569000       569000     2068.296    1981.3701    1414.9338    566.43628    201.90598    254.04435     23461.94   0.69109889 
  570000       570000    1853.0782    1955.7256    1405.1453    550.58033     200.5092   -299.99112     23461.94   0.69109889 
  571000       571000    1551.4685    1918.7735    1363.2936    555.47993    194.53711   -1073.4629     23461.94   0.69109889 
  572000       572000    1696.9596    1991.7964    1446.7113    545.08506    206.44052   -861.67186     23461.94   0.69109889 
  573000       573000    1558.9569    1922.9828    1394.7653    528.21751    199.02801   -1063.8797     23461.94   0.69109889 
  574000       574000    1568.6372    1929.0103    1403.5823    525.42803    200.28616   -1053.2041     23461.94   0.69109889 
  575000       575000    1574.5797    1946.8427    1384.0269     562.8158    197.49567   -1087.9528     23461.94   0.69109889 
  576000       576000    1470.8604    1874.7648    1358.6919    516.07292    193.88046   -1180.4258     23461.94   0.69109889 
  577000       577000    1719.1469     1908.812    1376.4147    532.39727    196.40945   -554.30351     23461.94   0.69109889 
  578000       578000     2124.053    1963.4936    1391.5316    571.96206    198.56657     469.2409     23461.94   0.69109889 
  579000       579000    1479.6842     1896.952    1398.1931    498.75893    199.51714   -1219.4813     23461.94   0.69109889 
  580000       580000    1748.0067    1914.7631    1392.0962    522.66689    198.64714   -487.35197     23461.94   0.69109889 
  581000       581000    2092.0555    1926.2437    1396.0847    530.15901    199.21628    484.59149     23461.94   0.69109889 
  582000       582000    2566.6054    1957.0189    1408.2532    548.76566    200.95269    1781.5397     23461.94   0.69109889 
  583000       583000    1815.4293    1961.6412    1420.8303    540.81096    202.74739   -427.30985     23461.94   0.69109889 
  584000       584000    1973.0098    1921.5014    1389.2274    532.27399    198.23777    150.53516     23461.94   0.69109889 
  585000       585000    2677.4843    1967.4501    1416.8648    550.58529    202.18153     2075.102     23461.94   0.69109889 
  586000       586000    2371.2982    1999.5464    1391.7066    607.83984    198.59154    1086.4588     23461.94   0.69109889 
  587000       587000    1462.6777     1886.702    1390.7235    495.97855    198.45125   -1239.2273     23461.94   0.69109889 
  588000       588000    2197.3157    1985.3096    1438.8221     546.4875    205.31476    619.59578     23461.94   0.69109889 
  589000       589000    2070.9928     1939.402    1396.9138    542.48816     199.3346    384.57916     23461.94   0.69109889 
  590000       590000    1694.1565    1915.7151    1383.7489    531.96624      197.456   -647.51341     23461.94   0.69109889 
  591000       591000    1589.0496    1997.8009    1417.0213    580.77962    202.20386   -1194.5912     23461.94   0.69109889 
[...]
  857000       857000    2191.7038    1954.8674     1372.243    582.62445    195.81416    692.16335     23461.94   0.69109889 
  858000       858000    2205.4889    1966.7509    1403.1843    563.56668    200.22937     697.7207     23461.94   0.69109889 
  859000       859000    1702.9706    1885.3716    1343.9447    541.42688    191.77609   -533.07366     23461.94   0.69109889 
  860000       860000    1996.7922    1991.5337    1436.4723    555.06135    204.97945    15.368194     23461.94   0.69109889 
  861000       861000    2612.4299    1970.5007     1415.201     555.2997    201.94411    1876.0628     23461.94   0.69109889 
  862000       862000    1904.2101    1852.8381    1355.0458     497.7923    193.36018    150.13643     23461.94   0.69109889 
  863000       863000    1841.4154    1976.7098    1402.8253    573.88455    200.17814   -395.40313     23461.94   0.69109889 
  864000       864000    1941.5799    1933.9988    1372.2703    561.72854    195.81806    22.155926     23461.94   0.69109889 
  865000       865000    2236.3272     2008.819    1421.7758    587.04318    202.88231    664.90141     23461.94   0.69109889 
  866000       866000    2009.5913    1930.4853    1409.2006    521.28478    201.08787    231.19031     23461.94   0.69109889 
  867000       867000    2045.5031     1930.696    1362.4276    568.26841    194.41354    335.52822     23461.94   0.69109889 
  868000       868000    2441.7229    1982.3699    1436.0577     546.3122     204.9203    1342.4767     23461.94   0.69109889 
  869000       869000    1741.0938    1936.5881    1425.7337    510.85434     203.4471   -571.33953     23461.94   0.69109889 
  870000       870000     1147.421     1989.029    1431.8128    557.21623    204.31455   -2459.6315     23461.94   0.69109889 
  871000       871000    1591.4966     1932.614    1372.4555     560.1585    195.84448   -996.92869     23461.94   0.69109889 
  872000       872000    2203.6702    2027.4492     1436.222    591.22727    204.94373    515.01249     23461.94   0.69109889 
  873000       873000     2029.226    1926.8689    1410.6915    516.17742    201.30062    299.14262     23461.94   0.69109889 
  874000       874000    2009.2021    1988.7122    1401.4071    587.30512    199.97577    59.882368     23461.94   0.69109889 
  875000       875000    2081.9888    1985.0011    1384.1093    600.89185    197.50744    283.45012     23461.94   0.69109889 
  876000       876000    1672.1925    1989.3219    1432.9128    556.40911    204.47152    -926.8227     23461.94   0.69109889 
  877000       877000    2405.2845    1989.2551    1418.2649    570.99026    202.38132    1215.8618     23461.94   0.69109889 
  878000       878000    2669.9351    1932.1212     1369.462    562.65921    195.41731    2156.2893     23461.94   0.69109889 
  879000       879000    1923.0268    1972.5761    1416.7976    555.77851    202.17194   -144.80959     23461.94   0.69109889 
  880000       880000    1809.9319    1980.3549    1389.3115    591.04347    198.24977   -498.06796     23461.94   0.69109889 
  881000       881000    2283.2107    1934.5746    1399.4437    535.13091     199.6956    1018.9024     23461.94   0.69109889 
  882000       882000    1875.8074     1912.463    1388.1618    524.30117    198.08571   -107.12717     23461.94   0.69109889 
  883000       883000    1790.2205    1971.9364     1419.339    552.59742    202.53459   -531.07165     23461.94   0.69109889 
  884000       884000    1920.7104    1946.6006    1403.3451    543.25553    200.25231   -75.664966     23461.94   0.69109889 
  885000       885000    1616.3464    1995.1035    1384.7454    610.35806    197.59821    -1106.932     23461.94   0.69109889 
  886000       886000    2013.5205    1964.2522    1404.3223    559.92996    200.39176    143.98824     23461.94   0.69109889 
  887000       887000    1618.6267    1944.6617    1361.7047    582.95707    194.31038   -952.84977     23461.94   0.69109889 
  888000       888000    1603.6771    1963.5727    1420.3752     543.1975    202.68246   -1051.8086     23461.94   0.69109889 
  889000       889000    1529.5654    1904.2225    1392.1304     512.0921    198.65202   -1094.9498     23461.94   0.69109889 
  890000       890000    1132.6159     1955.713    1384.4849     571.2281    197.56103   -2405.5326     23461.94   0.69109889 
  891000       891000    2218.9114    1923.1315    1403.5774    519.55413    200.28546    864.42809     23461.94   0.69109889 
  892000       892000    1869.7027    1958.1398    1413.8118    544.32803    201.74587   -258.46078     23461.94   0.69109889 
  893000       893000     1589.819    1890.7217    1391.3044    499.41723    198.53416   -879.39941     23461.94   0.69109889 
  894000       894000    1528.6459    1937.7684    1412.5895    525.17884    201.57146    -1195.676     23461.94   0.69109889 
  895000       895000     2027.076    1946.7662    1386.5062    560.26006    197.84946    234.70849     23461.94   0.69109889 
  896000       896000    2074.3853     1890.419    1364.9455    525.47342    194.77284    537.64853     23461.94   0.69109889 
  897000       897000    1656.4111    1968.2563    1434.4597    533.79658    204.69227   -911.37961     23461.94   0.69109889 
  898000       898000    1888.1626    1969.9973     1431.239    538.75826    204.23268   -239.16494     23461.94   0.69109889 
  899000       899000    2576.9622    1947.3388    1397.6476    549.69112    199.43931    1840.0987     23461.94   0.69109889 
  900000       900000     2140.818    1937.0372    1416.3838    520.65344    202.11289    595.55698     23461.94   0.69109889 
  901000       901000    1705.0623    1883.8745     1390.937    492.93749    198.48172   -522.58535     23461.94   0.69109889 
  902000       902000    2064.1134    1951.1971    1403.9833    547.21385    200.34339    330.00197     23461.94   0.69109889 
  903000       903000      1817.29    1963.7848    1433.4049    530.37992    204.54174   -428.13665     23461.94   0.69109889 
  904000       904000     2443.881     1971.982    1387.7735    584.20845    198.03031    1379.1428     23461.94   0.69109889 
  905000       905000     1845.031    1934.0921     1401.273     532.8191    199.95664   -260.28459     23461.94   0.69109889 
  906000       906000    1603.4623    2009.2383    1442.6022    566.63604    205.85417   -1185.8958     23461.94   0.69109889 
  907000       907000    2175.6087    1953.4416     1393.851    559.59059    198.89755    649.29183     23461.94   0.69109889 
  908000       908000    1816.3505    1916.1369    1411.1444    504.99242    201.36526   -291.62957     23461.94   0.69109889 
  909000       909000    1995.6075    1916.1107    1417.0772    499.03356    202.21184    232.33227     23461.94   0.69109889 
  910000       910000    1822.3757    1960.4087     1392.896    567.51271    198.76126   -403.40676     23461.94   0.69109889 
  911000       911000    2014.4131     1931.932    1392.6749    539.25715    198.72971    241.05419     23461.94   0.69109889 
  912000       912000    2373.3245    1909.4492    1387.9188    521.53034    198.05105    1355.6932     23461.94   0.69109889 
  913000       913000    1970.3429    1978.2134    1404.0017     574.2117    200.34601   -23.001774     23461.94   0.69109889 
  914000       914000    2242.7319    1918.8544    1411.9784    506.87596    201.48426    946.54432     23461.94   0.69109889 
  915000       915000    2117.6198    2003.0583    1423.9839    579.07443     203.1974    334.81037     23461.94   0.69109889 
  916000       916000    1945.4715    1949.9359    1402.8682    547.06771    200.18427    -13.04761     23461.94   0.69109889 
  917000       917000    1901.2232    1980.3796    1404.9787    575.40091    200.48542   -231.33771     23461.94   0.69109889 
  918000       918000     2174.224     1929.738    1403.5769    526.16111    200.28539    714.51986     23461.94   0.69109889 
  919000       919000    1900.5183    2012.5975    1431.4599    581.13762    204.26419   -327.55565     23461.94   0.69109889 
  920000       920000    2140.1815    2004.5145    1435.4134    569.10108    204.82836    396.49194     23461.94   0.69109889 
  921000       921000    1716.8655     2015.567    1444.3414    571.22562    206.10234   -872.96636     23461.94   0.69109889 
  922000       922000    1121.0832    1940.8896    1358.3521    582.53748    193.83197   -2395.9155     23461.94   0.69109889 
  923000       923000    1257.2715    1925.8026    1402.5881    523.21452     200.1443   -1953.8077     23461.94   0.69109889 
  924000       924000     1816.642    1985.3354    1389.7964    595.53909    198.31896   -493.01302     23461.94   0.69109889 
  925000       925000    2059.5832    1925.0483    1431.0071    494.04113    204.19959    393.18341     23461.94   0.69109889 
  926000       926000    1346.2632    1892.3663     1364.938    527.42822    194.77177   -1596.0071     23461.94   0.69109889 
  927000       927000    1810.2443     1959.362    1417.2159    542.14613    202.23163   -435.80219     23461.94   0.69109889 
  928000       928000    1908.9201    1998.3281    1438.0917    560.23635    205.21054   -261.29831     23461.94   0.69109889 
  929000       929000     1966.009    1945.2189    1376.3715    568.84743    196.40328    60.759849     23461.94   0.69109889 
  930000       930000     2209.024    1998.5429    1421.9891    576.55386    202.91274    615.13895     23461.94   0.69109889 
  931000       931000     1202.974    1915.4194      1379.86    535.55936    196.90108   -2082.1488     23461.94   0.69109889 
  932000       932000     1852.614    1968.4307    1413.1201    555.31063    201.64718   -338.47873     23461.94   0.69109889 
  933000       933000    2190.8085    1899.6538    1351.2753    548.37851    192.82214    850.91072     23461.94   0.69109889 
  934000       934000    2131.6658    1957.7738    1382.8233    574.95052    197.32393     508.2061     23461.94   0.69109889 
  935000       935000    1855.8618    1965.8599    1390.8041    575.05577    198.46277   -321.47373     23461.94   0.69109889 
  936000       936000     1794.112    1863.0688     1351.391    511.67779    192.83865   -201.52885     23461.94   0.69109889 
  937000       937000    2151.7161    1939.3831    1387.2977    552.08539    197.96242    620.55106     23461.94   0.69109889 
  938000       938000    2226.7774    1961.8284    1426.3724    535.45594    203.53824    774.32352     23461.94   0.69109889 
  939000       939000    1359.6667    1927.1301    1380.1649    546.96518    196.94458   -1658.4333     23461.94   0.69109889 
  940000       940000    1751.7114    1948.6088    1371.9736     576.6352    195.77572   -575.44034     23461.94   0.69109889 
  941000       941000    2024.9125    1948.8547     1377.229    571.62569    196.52564    222.28192     23461.94   0.69109889 
  942000       942000    2169.6466    1950.9252    1407.7477    543.17743    200.88056     639.2218     23461.94   0.69109889 
  943000       943000    1884.1876    1952.5354    1416.9164    535.61892     202.1889   -199.74904     23461.94   0.69109889 
  944000       944000    2309.5507    1898.9595    1382.2176    516.74197    197.23749    1199.9684     23461.94   0.69109889 
  945000       945000    2007.2758    1976.2617    1408.9343    567.32732    201.04988    90.640044     23461.94   0.69109889 
  946000       946000    1845.8079    1983.6105    1429.1362    554.47436    203.93261   -402.73358     23461.94   0.69109889 
  947000       947000    1948.6232    1938.2664    1411.8609    526.40548    201.46749    30.268087     23461.94   0.69109889 
  948000       948000    2406.8389    2028.0837    1408.5643    619.51945    200.99707    1106.9265     23461.94   0.69109889 
  949000       949000    2448.2574    1930.9787    1400.5901    530.38858    199.85919    1511.7668     23461.94   0.69109889 
  950000       950000    1586.9091    1953.7238    1373.1676    580.55618     195.9461     -1072.03     23461.94   0.69109889 
  951000       951000    1893.9864     1929.775    1358.9053    570.86974    193.91092   -104.59365     23461.94   0.69109889 
  952000       952000    1870.2099    1950.1997    1409.7847    540.41498    201.17123   -233.77325     23461.94   0.69109889 
  953000       953000    1885.8675    1930.2954    1405.4136    524.88186    200.54748   -129.84217     23461.94   0.69109889 
  954000       954000    1824.8671    1944.1021    1366.9648    577.13731    195.06097   -348.46868     23461.94   0.69109889 
  955000       955000    2701.4001    1957.8766    1399.0693    558.80728    199.64217    2172.9759     23461.94   0.69109889 
  956000       956000    2740.7123    2035.9157    1448.6488    587.26692      206.717    2059.7949     23461.94   0.69109889 
  957000       957000    2043.3676    1942.9355    1428.5775    514.35805    203.85288     293.5167     23461.94   0.69109889 
  958000       958000     1800.362    1932.8094     1405.564    527.24549    200.56894   -387.08273     23461.94   0.69109889 
  959000       959000    2051.0819    2034.2708    1431.8336    602.43725    204.31752    49.131066     23461.94   0.69109889 
  960000       960000    1728.8284    1945.7507     1378.029     567.7217     196.6398   -633.96382     23461.94   0.69109889 
  961000       961000    2023.7534    1956.7017    1424.6359    532.06581    203.29044    195.96103     23461.94   0.69109889 
  962000       962000    1919.4479    1997.6773    1414.1968    583.48056    201.80081   -228.62856     23461.94   0.69109889 
  963000       963000    1797.6186    1934.0835    1374.6976    559.38587    196.16442   -398.82365     23461.94   0.69109889 
  964000       964000    1676.0129    1979.3541    1427.5115    551.84262    203.70077   -886.52613     23461.94   0.69109889 
  965000       965000    2067.5413    1933.0412    1421.0773     511.9639    202.78264    393.08157     23461.94   0.69109889 
  966000       966000    2233.7045    1964.9185    1410.2556    554.66289    201.23843    785.53717     23461.94   0.69109889 
  967000       967000    1831.9345    1913.3353    1375.5328    537.80251    196.28361   -237.89716     23461.94   0.69109889 
  968000       968000    1914.7229    1992.4243    1413.2712     579.1531    201.66874   -227.08544     23461.94   0.69109889 
  969000       969000    1808.2987    1977.6188    1438.1307    539.48807     205.2161    -494.8444     23461.94   0.69109889 
  970000       970000    2227.4275    1946.8587    1389.6802    557.17846    198.30239    819.97285     23461.94   0.69109889 
  971000       971000    2080.3426    1973.9822    1396.3567    577.62546     199.2551     310.8423     23461.94   0.69109889 
  972000       972000    1740.4631    1945.4666    1426.2838    519.18276    203.52559   -599.13032     23461.94   0.69109889 
  973000       973000    1915.9865    1945.8922    1401.2293     544.6629     199.9504   -87.400423     23461.94   0.69109889 
  974000       974000    1830.6178    1988.2962    1424.1893     564.1069    203.22671   -460.82117     23461.94   0.69109889 
  975000       975000    1589.5292    1941.3389    1415.4491    525.88982    201.97952   -1028.1775     23461.94   0.69109889 
  976000       976000    1748.6183    1935.9591    1398.5616     537.3975    199.56973   -547.51079     23461.94   0.69109889 
  977000       977000    2048.5486    1960.2554     1410.039    550.21638    201.20751    258.04039     23461.94   0.69109889 
  978000       978000    1997.2462    1919.5784    1349.0225    570.55585    192.50068    226.98726     23461.94   0.69109889 
  979000       979000    1947.8632    1885.8666    1364.2596      521.607    194.67496    181.18735     23461.94   0.69109889 
  980000       980000    2462.5801    1957.8439    1417.7733    540.07058    202.31117    1475.1107     23461.94   0.69109889 
  981000       981000    1148.1077    1881.4851    1365.1057    516.37946    194.79569   -2143.3236     23461.94   0.69109889 
  982000       982000    1485.1562    1965.8677    1407.3789    558.48872    200.82793   -1404.8974     23461.94   0.69109889 
  983000       983000    2237.3799    1926.2022    1422.9032    503.29891    203.04319    909.42872     23461.94   0.69109889 
  984000       984000    1925.0259    1900.3083    1398.9218    501.38651    199.62112    72.238383     23461.94   0.69109889 
  985000       985000    1496.0216    1962.1558     1417.298    544.85781    202.24334    -1362.295     23461.94   0.69109889 
  986000       986000    1865.6571    1932.5396    1384.2612    548.27839    197.52911    -195.4667     23461.94   0.69109889 
  987000       987000    1655.3038    1964.8899    1400.2465    564.64339    199.81016   -904.77725     23461.94   0.69109889 
  988000       988000    2077.6736    1947.9246     1371.468    576.45658    195.70357    379.19639     23461.94   0.69109889 
  989000       989000    1546.5352     1915.938     1377.498    538.43999    196.56403   -1079.5938     23461.94   0.69109889 
  990000       990000     2009.169    1957.0822     1411.855    545.22719    201.46665    152.22564     23461.94   0.69109889 
  991000       991000    2258.2725    1942.7046    1377.0327    565.67191    196.49763    922.25914     23461.94   0.69109889 
  992000       992000    2598.8194    1912.9551    1409.2355    503.71966    201.09285    2004.4644     23461.94   0.69109889 
  993000       993000    2479.3876    1965.2065    1393.3408    571.86569    198.82474    1502.7141     23461.94   0.69109889 
  994000       994000    2167.3073    1912.2909    1415.2788    497.01209    201.95522    745.29515     23461.94   0.69109889 
  995000       995000    2171.5889    1949.7132    1434.9708    514.74239    204.76519    648.44026     23461.94   0.69109889 
  996000       996000    1675.6768    1963.2219    1409.2258    553.99615    201.09147   -840.36148     23461.94   0.69109889 
  997000       997000    1960.8028    1915.1329     1378.045    537.08791    196.64209    133.47201     23461.94   0.69109889 
  998000       998000    2159.9854    2002.1813    1398.5282    603.65307    199.56497    461.18843     23461.94   0.69109889 
  999000       999000    1559.5105     1948.388    1411.0132     537.3748    201.34653   -1136.5093     23461.94   0.69109889 
 1000000      1000000    2147.4943    1895.3856    1374.5438    520.84179    196.14247    736.79728     23461.94   0.69109889 
 1000001      1000001    1975.9958    1894.8079    1373.7014    521.10648    196.02227    237.27467     23461.94   0.69109889 
Loop time of 1573.77 on 24 procs for 1000000 steps with 2352 atoms

Performance: 54.900 ns/day, 0.437 hours/ns, 635.417 timesteps/s
93.1% CPU use with 24 MPI tasks x 1 OpenMP threads

MPI task timing breakdown:
Section |  min time  |  avg time  |  max time  |%varavg| %total
---------------------------------------------------------------
Pair    | 762.3      | 814.78     | 863.58     |  97.2 | 51.77
Bond    | 37.326     | 38.678     | 39.85      |  13.2 |  2.46
Kspace  | 202.2      | 252.21     | 304.28     | 182.9 | 16.03
Neigh   | 43.358     | 44.716     | 45.393     |   8.7 |  2.84
Comm    | 338.44     | 348.9      | 372.03     |  43.9 | 22.17
Output  | 0.042865   | 0.044656   | 0.076321   |   3.1 |  0.00
Modify  | 10.919     | 15.476     | 19.418     |  79.5 |  0.98
Other   |            | 58.97      |            |       |  3.75

Nlocal:    98 ave 111 max 84 min
Histogram: 1 4 2 0 4 2 3 3 4 1
Nghost:    5483.21 ave 5601 max 5359 min
Histogram: 2 1 0 7 2 3 3 2 3 1
Neighs:    56398.8 ave 63198 max 47115 min
Histogram: 1 0 4 0 4 3 3 4 1 4

Total # of neighbors = 1353570
Ave neighs/atom = 575.497
Ave special neighs/atom = 9.14286
Neighbor list builds = 26200
Dangerous builds = 0

write_data butane_afterr_nvt1_200K.data
Ewald initialization ...
  using 12-bit tables for long-range coulomb (src/kspace.cpp:332)
  G vector (1/distance) = 0.188768
  estimated absolute RMS force accuracy = 0.0041484
  estimated relative force accuracy = 1.24928e-05
  KSpace vectors: actual max1d max3d = 128 4 364
                  kxmax kymax kzmax  = 4 4 4
Total wall time: 0:26:14
