LAMMPS (3 Mar 2020)
  using 1 OpenMP thread(s) per MPI task
units           real
atom_style      full
boundary        p p p


pair_style      lj/cut/coul/long 12.0
pair_modify     tail yes mix geometric
bond_style      harmonic
angle_style     harmonic
dihedral_style  opls

kspace_style    ewald 1.0e-5
#special_bonds   lj/coul 0.0 0.0 0.5

neighbor        2.0 bin
neigh_modify    every 1 delay 0 check yes

read_data       butane_afterr_nvt1_200K.data
  orthogonal box = (0 0 0) to (29.4768 29.4768 29.4768)
  3 by 2 by 4 MPI processor grid
  reading atoms ...
  2352 atoms
  reading velocities ...
  2352 velocities
  scanning bonds ...
  1 = max bonds/atom
  scanning angles ...
  6 = max angles/atom
  scanning dihedrals ...
  11 = max dihedrals/atom
  reading bonds ...
  2184 bonds
  reading angles ...
  4032 angles
  reading dihedrals ...
  4536 dihedrals
  4 = max # of 1-2 neighbors
  6 = max # of 1-3 neighbors
  9 = max # of 1-4 neighbors
  13 = max # of special neighbors
  special bonds CPU = 0.00112086 secs
  read_data CPU = 0.477093 secs

group           mobile union all
2352 atoms in group mobile

#minimize 1.0e-8 1.0e-10 400000 400000
#write_data buate_after_min.data

#fix DEF all deform 1 x final 0.0 28.0629 y final 0.0 28.0629 z final 0.0 28.0629 units box
#run 1
#unfix DEF

thermo_style    custom step time enthalpy etotal ke pe temp press vol density
#thermo_modify   line multi
thermo          1000
thermo_modify   flush yes
timestep 1.0


## Equil NPT ##
#fix      NPT  all nvt temp 272 272 100 iso 1 1 1000
#restart 1000000 liqbut1.restart

#fix      NPT  all npt temp 160 160 50 iso 1 1 500
#dump myDump all atom 2000 butane_npt.lammpstrj

#run 5000000
#write_data ethanol_after_npt.data



fix 1 all nvt temp 250 250 100 # iso 1.0 1.0 1000.0
#dump            DUMPxyz all xyz 1 but1_clms_20ps.xyz
#dump            DUMP all custom 1000 mol.lammpstrj id type x y z fx fy fz mol

run 1000000
Ewald initialization ...
  using 12-bit tables for long-range coulomb (src/kspace.cpp:332)
  G vector (1/distance) = 0.18796
  estimated absolute RMS force accuracy = 0.00456194
  estimated relative force accuracy = 1.37382e-05
  KSpace vectors: actual max1d max3d = 128 4 364
                  kxmax kymax kzmax  = 4 4 4
Neighbor list info ...
  update every 1 steps, delay 0 steps, check yes
  max neighbors/atom: 2000, page size: 100000
  master list distance cutoff = 14
  ghost atom cutoff = 14
  binsize = 7, bins = 5 5 5
  1 neighbor lists, perpetual/occasional/extra = 1 0 0
  (1) pair lj/cut/coul/long, perpetual
      attributes: half, newton on
      pair build: half/bin/newton
      stencil: half/bin/3d/newton
      bin: standard
Per MPI rank memory allocation (min/avg/max) = 19.26 | 19.26 | 19.27 Mbytes
Step Time Enthalpy TotEng KinEng PotEng Temp Press Volume Density 
       0            0    2913.3014    2656.1626    1695.6817    960.48087     241.9677     688.4158    25611.853   0.63308659 
    1000         1000    2628.8649    2728.4714    1767.1969    961.27459    252.17266   -266.66795    25611.853   0.63308659 
    2000         2000     2604.845    2774.1768    1775.1419    999.03495    253.30639   -453.33764    25611.853   0.63308659 
    3000         3000    3099.1893    2690.5427    1756.0577    934.48506    250.58314    1094.0344    25611.853   0.63308659 
    4000         4000    2783.6784    2744.3591    1788.4411    955.91803    255.20414    105.26613    25611.853   0.63308659 
    5000         5000    2754.3583    2766.5091    1784.1137    982.39541    254.58663   -32.530099    25611.853   0.63308659 
    6000         6000     2385.978    2647.8964    1727.7821    920.11432    246.54831   -701.21163    25611.853   0.63308659 
    7000         7000    2191.2992    2809.9467    1794.0749    1015.8719    256.00806    -1656.252    25611.853   0.63308659 
    8000         8000    2387.3509    2683.4987     1694.277    989.22167    241.76726   -792.85091    25611.853   0.63308659 
    9000         9000    2091.1718    2765.1738    1756.0567    1009.1172      250.583   -1804.4479    25611.853   0.63308659 
   10000        10000    2371.9855    2716.3731    1757.7081    958.66499    250.81865   -921.99938    25611.853   0.63308659 
   11000        11000    2337.8454    2780.9307    1812.9475     967.9832    258.70111   -1186.2342    25611.853   0.63308659 
   12000        12000    2700.0275    2735.5053     1780.848    954.65728    254.12063   -94.981488    25611.853   0.63308659 
   13000        13000    2481.1769    2780.2626    1721.4111    1058.8514     245.6392   -800.71628    25611.853   0.63308659 
   14000        14000     2529.704    2743.1092    1778.8403     964.2689    253.83414    -571.3316    25611.853   0.63308659 
   15000        15000    2582.0345    2780.9072    1718.4532    1062.4541    245.21711   -532.42483    25611.853   0.63308659 
   16000        16000    2737.8207    2699.1891    1755.7874    943.40171    250.54457    103.42508    25611.853   0.63308659 
   17000        17000    2997.1687    2793.1065    1811.2695    981.83698    258.46167    546.31808    25611.853   0.63308659 
   18000        18000     2906.295    2723.7616    1768.8043    954.95722    252.40204    488.68118    25611.853   0.63308659 
   19000        19000    2276.1813    2640.3476    1683.1303    957.21728    240.17667   -974.95101    25611.853   0.63308659 
   20000        20000    2464.5143    2775.6904    1774.8792    1000.8111     253.2689   -833.08486    25611.853   0.63308659 
   21000        21000    2552.9298    2762.5202    1794.3377    968.18254    256.04556   -561.11856    25611.853   0.63308659 
   22000        22000    2530.0078    2695.0591       1754.1    940.95911    250.30378   -441.87759    25611.853   0.63308659 
   23000        23000    2734.6377     2673.856     1703.631    970.22506    243.10204    162.72543    25611.853   0.63308659 
   24000        24000    2525.0406    2736.7074    1775.6274    961.08001    253.37567   -566.67724    25611.853   0.63308659 
   25000        25000    2668.4411    2673.5211    1738.2597    935.26136    248.04343   -13.600251    25611.853   0.63308659 
   26000        26000    2713.0924    2747.4646    1741.6458    1005.8188    248.52661   -92.021694    25611.853   0.63308659 
   27000        27000    2870.8107    2672.6914    1733.9352    938.75621    247.42634    530.40792    25611.853   0.63308659 
   28000        28000    3343.0326    2742.1626    1771.6136      970.549    252.80291    1608.6577    25611.853   0.63308659 
   29000        29000    3037.8844    2741.7975    1761.5812    980.21634    251.37133    792.68791    25611.853   0.63308659 
   30000        30000    2308.2623    2729.3502    1743.3206    986.02961     248.7656   -1127.3425    25611.853   0.63308659 
   31000        31000    2560.2029    2833.7572    1807.0108    1026.7464    257.85396   -732.36333    25611.853   0.63308659 
   32000        32000    3241.2917    2729.7025    1706.7734    1022.9291    243.55045    1369.6339    25611.853   0.63308659 
   33000        33000     2738.562    2724.5469    1738.4461    986.10073    248.07004    37.521546    25611.853   0.63308659 
   34000        34000    3059.1385    2772.6622    1773.0939    999.56832    253.01415    766.95838    25611.853   0.63308659 
   35000        35000    2712.1975    2750.2986    1804.9156      945.383    257.55499   -102.00475    25611.853   0.63308659 
   36000        36000     2273.687    2713.5004    1772.7828    940.71762    252.96975   -1177.4745    25611.853   0.63308659 
   37000        37000    2375.5653    2812.1574    1734.2083    1077.9492    247.46531   -1168.8507    25611.853   0.63308659 
   38000        38000    2850.3678    2720.4442    1751.4887    968.95551    249.93116    347.83337    25611.853   0.63308659 
   39000        39000    2553.5076    2701.7752    1729.8008    971.97436    246.83638    -396.9441    25611.853   0.63308659 
   40000        40000    3141.8148    2751.9796    1747.6243    1004.3553    249.37972    1043.6725    25611.853   0.63308659 
   41000        41000    2674.3883    2698.1791    1747.5895    950.58959    249.37476    -63.69308    25611.853   0.63308659 
   42000        42000    3058.4843    2758.1585    1771.1999    986.95853    252.74389    804.03658    25611.853   0.63308659 
   43000        43000    2640.1901    2697.2213    1701.1873    996.03398    242.75333   -152.68477    25611.853   0.63308659 
   44000        44000    2676.7382    2701.4775     1674.182    1027.2955    238.89977   -66.232199    25611.853   0.63308659 
   45000        45000    2408.1571     2755.146    1757.6496    997.49641     250.8103   -928.96359    25611.853   0.63308659 
   46000        46000    2617.0044      2656.78    1731.8019    924.97803    247.12193   -106.48761    25611.853   0.63308659 
   47000        47000    2463.4043    2695.7219    1691.9451    1003.7768    241.43451   -621.96396    25611.853   0.63308659 
   48000        48000    2900.2139    2736.5292    1749.6855    986.84369    249.67386    438.21894    25611.853   0.63308659 
   49000        49000    2654.1946     2696.419    1693.8079    1002.6111    241.70032   -113.04371    25611.853   0.63308659 
   50000        50000    2526.3201     2741.822    1732.9897    1008.8323    247.29142   -576.94477    25611.853   0.63308659 
   51000        51000     2694.814    2706.7023    1715.7639    990.93842    244.83337   -31.827656    25611.853   0.63308659 
   52000        52000    2779.8895    2759.2997    1773.7833    985.51635    253.11253    55.123388    25611.853   0.63308659 
   53000        53000     2529.992    2696.4547    1727.8652    968.58951    246.56017   -445.65634    25611.853   0.63308659 
   54000        54000    2761.5039    2728.2984    1745.9685    982.32985    249.14345    88.898327    25611.853   0.63308659 
   55000        55000     2567.572    2761.4153    1742.1717    1019.2436    248.60166   -518.96022    25611.853   0.63308659 
   56000        56000    2600.2306    2751.3978     1716.316    1035.0818    244.91214   -404.70685    25611.853   0.63308659 
   57000        57000    2212.4694    2736.8333    1777.2971     959.5362    253.61393   -1403.8346    25611.853   0.63308659 
   58000        58000    2830.7015    2751.0679    1750.3273    1000.7407    249.76543    213.19606    25611.853   0.63308659 
   59000        59000    2793.2014    2722.5535    1758.9142    963.63933    250.99075    189.13955    25611.853   0.63308659 
   60000        60000    2848.6272    2745.9266    1776.9971    968.92949    253.57112    274.95148    25611.853   0.63308659 
   61000        61000    2923.4409    2780.5649    1800.7724    979.79245    256.96378    382.50969    25611.853   0.63308659 
   62000        62000    2842.8037    2710.1257    1728.2928    981.83294    246.62119    355.20728    25611.853   0.63308659 
   63000        63000    3149.1746     2756.248    1789.5399    966.70812    255.36093    1051.9487    25611.853   0.63308659 
   64000        64000    3153.6844    2746.7593     1711.816    1034.9432    244.27001    1089.4256    25611.853   0.63308659 
   65000        65000    3208.9033    2767.6503    1764.0088    1003.6415    251.71773    1181.3286    25611.853   0.63308659 
   66000        66000    2402.5462    2804.3023    1752.7099    1051.5924    250.10542    -1075.587    25611.853   0.63308659 
   67000        67000      2773.56    2702.5485    1715.5421    987.00641    244.80172    190.11292    25611.853   0.63308659 
   68000        68000     2440.631    2753.0515    1750.0855     1002.966    249.73093    -836.4165    25611.853   0.63308659 
   69000        69000    2590.3854    2789.4494    1762.6004     1026.849    251.51676   -532.93683    25611.853   0.63308659 
   70000        70000    1860.3459     2706.947    1712.3372     994.6098    244.34438   -2266.5323    25611.853   0.63308659 
   71000        71000    2581.5762    2743.6307    1721.2944    1022.3363    245.62254   -433.85461    25611.853   0.63308659 
   72000        72000    2564.4261    2781.2025    1771.9989    1009.2036     252.8579   -580.35684    25611.853   0.63308659 
   73000        73000     2446.036    2709.2088    1746.0637    963.14517    249.15703   -704.56991    25611.853   0.63308659 
   74000        74000    2316.6945    2783.2784    1788.5073    994.77113    255.21358   -1249.1452    25611.853   0.63308659 
   75000        75000    2324.0544    2745.2217    1750.0526    995.16918    249.72623   -1127.5552    25611.853   0.63308659 
   76000        76000    2356.6411    2709.3849    1733.2097     976.1752    247.32282   -944.37064    25611.853   0.63308659 
   77000        77000    2023.4258    2672.5034    1713.2825    959.22095    244.47927   -1737.7199    25611.853   0.63308659 
   78000        78000    2734.8534    2708.0242    1774.5365    933.48772       253.22    71.827404    25611.853   0.63308659 
   79000        79000    2638.6388    2760.4405    1745.3133    1015.1272    249.04996   -326.08922    25611.853   0.63308659 
   80000        80000    2173.1212    2765.7831    1742.8326    1022.9505    248.69597   -1586.6828    25611.853   0.63308659 
   81000        81000     2824.275    2755.4336    1796.7182    958.71545    256.38524    184.30326    25611.853   0.63308659 
   82000        82000    2644.7748    2800.2875    1784.4886    1015.7989    254.64013   -416.34077    25611.853   0.63308659 
   83000        83000    2633.6292    2746.0234    1741.8477    1004.1756    248.55543   -300.90319    25611.853   0.63308659 
   84000        84000    2206.2694    2722.6969    1768.6597    954.03717    252.38141   -1382.5871    25611.853   0.63308659 
   85000        85000    2653.9498    2813.5424    1766.7331    1046.8093    252.10648   -427.26355    25611.853   0.63308659 
   86000        86000    3205.5231    2772.4696    1773.5075    998.96204    253.07317    1159.3772    25611.853   0.63308659 
   87000        87000    3269.2954    2766.0112    1811.0005    955.01072    258.42328    1347.3995    25611.853   0.63308659 
   88000        88000    2674.1664    2784.9307    1782.6104    1002.3202    254.37212   -296.53978    25611.853   0.63308659 
   89000        89000    2486.3031    2741.8459    1748.4044    993.44151    249.49105   -684.14297    25611.853   0.63308659 
   90000        90000    2140.8726    2714.2084    1707.8886    1006.3198    243.70958   -1534.9427    25611.853   0.63308659 
   91000        91000    2732.0621    2767.8735    1763.3019    1004.5716    251.61686   -95.874668    25611.853   0.63308659 
   92000        92000    2638.0612    2694.2905    1712.5254    981.76509    244.37124     -150.538    25611.853   0.63308659 
   93000        93000    2654.0723    2696.2915    1721.4295    974.86203    245.64182   -113.02988    25611.853   0.63308659 
   94000        94000     2550.544    2756.8028    1740.8822    1015.9205    248.41766    -552.1988    25611.853   0.63308659 
   95000        95000     2421.793    2770.1542     1764.438    1005.7162    251.77899   -932.63766    25611.853   0.63308659 
   96000        96000    2310.8983    2704.2223    1726.5483    977.67408    246.37225   -1053.0127    25611.853   0.63308659 
   97000        97000    2906.9091    2773.0527     1760.536    1012.5167    251.22218    358.36222    25611.853   0.63308659 
   98000        98000     2621.993    2781.7341    1754.3717    1027.3624    250.34255   -427.66104    25611.853   0.63308659 
   99000        99000    3078.9744    2715.5973     1743.831    971.76633    248.83843    972.83818    25611.853   0.63308659 
  100000       100000    3661.5175    2670.6944    1706.0002     964.6942    243.44012    2652.6456    25611.853   0.63308659 
  101000       101000    2572.2421    2767.1073    1767.7218     999.3855    252.24757   -521.69583    25611.853   0.63308659 
  102000       102000    2782.6052    2771.5024    1773.6417    997.86069    253.09231    29.724699    25611.853   0.63308659 
  103000       103000    2980.8052    2831.3048    1798.3362    1032.9686    256.61614    400.24453    25611.853   0.63308659 
  104000       104000    2403.6091    2729.5571    1762.2973    967.25983     251.4735   -872.63261    25611.853   0.63308659 
  105000       105000    3172.2787    2799.2585    1788.1996     1011.059    255.16967    998.65484    25611.853   0.63308659 
  106000       106000    3284.3868    2712.9153    1770.6708    942.24448    252.66838    1529.9516    25611.853   0.63308659 
  107000       107000    3417.0363    2753.9823    1742.1148    1011.8675    248.59354    1775.1375    25611.853   0.63308659 
  108000       108000      2804.43    2765.9479    1766.9212    999.02673    252.13333    103.02461    25611.853   0.63308659 
  109000       109000    2465.6897    2744.7131    1765.9774    978.73577    251.99865   -747.00553    25611.853   0.63308659 
  110000       110000    2349.0488    2697.3904    1735.6203    961.77009     247.6668   -932.58516    25611.853   0.63308659 
  111000       111000    3005.6876    2794.4174    1729.7794     1064.638    246.83333     565.6155    25611.853   0.63308659 
  112000       112000    2191.3929    2694.1929    1720.8674    973.32558    245.56161   -1346.1034    25611.853   0.63308659 
  113000       113000     2969.036    2770.2136    1770.3282     999.8854    252.61949    532.29027    25611.853   0.63308659 
  114000       114000    2557.6311    2768.9036    1754.0055    1014.8981    250.29029    -565.6216    25611.853   0.63308659 
  115000       115000    2498.3634    2736.9812    1757.6085    979.37268    250.80444   -638.83096    25611.853   0.63308659 
  116000       116000      3289.78    2831.3898    1824.4765    1006.9132    260.34626    1227.2087    25611.853   0.63308659 
  117000       117000     2359.912    2725.9325    1777.6577    948.27478    253.66539   -979.91523    25611.853   0.63308659 
  118000       118000    2275.1407    2762.8878    1756.8251    1006.0626    250.69265   -1305.8033    25611.853   0.63308659 
  119000       119000    2963.0054     2704.948    1740.4267    964.52129    248.35266    690.87506    25611.853   0.63308659 
  120000       120000    3069.1561    2740.9038    1735.8507    1005.0531    247.69968    878.80173    25611.853   0.63308659 
  121000       121000       3197.6    2752.9999    1773.9744    979.02553    253.13979    1190.2895    25611.853   0.63308659 
  122000       122000     2488.942    2688.1843    1706.5062     981.6781    243.51232   -533.41426    25611.853   0.63308659 
  123000       123000    2436.9513    2714.1844    1729.0333    985.15114    246.72685   -742.21228    25611.853   0.63308659 
  124000       124000    2588.9003    2743.0317    1757.4922    985.53943    250.78784   -412.64266    25611.853   0.63308659 
  125000       125000    2503.0798    2824.7148    1780.5925    1044.1223    254.08418   -861.08591    25611.853   0.63308659 
  126000       126000    3002.1506    2723.0546    1752.8253    970.22928    250.12189    747.19978    25611.853   0.63308659 
  127000       127000    2574.6029    2744.0552    1774.8053    969.24989    253.25836   -453.66025    25611.853   0.63308659 
  128000       128000    2523.8763    2725.9974    1762.4859    963.51147    251.50042   -541.12136    25611.853   0.63308659 
  129000       129000    2101.5626    2690.0371    1712.9014    977.13563     244.4249   -1575.4722    25611.853   0.63308659 
  130000       130000    2745.4379     2783.737    1768.6499     1015.087    252.38001   -102.53481    25611.853   0.63308659 
  131000       131000    3015.9113    2774.2226    1761.4265    1012.7961    251.34925    647.05237    25611.853   0.63308659 
  132000       132000    2404.5699    2793.1342    1779.1814    1013.9529    253.88281   -1040.2699    25611.853   0.63308659 
  133000       133000    2867.2855    2722.7161    1739.4284    983.28764     248.2102     387.0433    25611.853   0.63308659 
  134000       134000    2422.9005    2758.7946    1768.1861    990.60853    252.31382   -899.26062    25611.853   0.63308659 
  135000       135000     2523.888    2766.8605    1763.8777    1002.9828    251.69903   -650.48935    25611.853   0.63308659 
  136000       136000    3036.5671    2745.9873    1738.2878    1007.6996    248.04743     777.9443    25611.853   0.63308659 
  137000       137000    3320.6282    2720.8385     1715.246    1005.5925    244.75946    1605.7652    25611.853   0.63308659 
  138000       138000    2716.7815    2734.2774    1751.8899    982.38746    249.98841   -46.840208    25611.853   0.63308659 
  139000       139000    2651.9877    2749.7218     1744.328    1005.3939    248.90935    -261.6551    25611.853   0.63308659 
  140000       140000    2643.1931    2753.3607    1751.2462    1002.1146    249.89655   -294.94241    25611.853   0.63308659 
  141000       141000    2837.4153    2765.8794    1778.9083    986.97115    253.84384    191.51689    25611.853   0.63308659 
  142000       142000    2962.0268    2726.3079    1741.4066    984.90129    248.49248    631.07014    25611.853   0.63308659 
  143000       143000    2210.6247    2672.3827    1764.8394    907.54333    251.83626   -1236.2251    25611.853   0.63308659 
  144000       144000    2401.9704    2713.0438    1717.2412    995.80255    245.04417   -832.81018    25611.853   0.63308659 
  145000       145000     3210.235    2763.2722    1737.1319    1026.1403     247.8825    1196.6152    25611.853   0.63308659 
  146000       146000    3267.8237    2742.2707    1734.2293    1008.0414    247.46831    1407.0179    25611.853   0.63308659 
  147000       147000    2970.3708    2798.9915    1791.4313    1007.5603    255.63082    458.81896    25611.853   0.63308659 
  148000       148000    2713.6332    2713.8971     1729.099    984.79814    246.73623  -0.70639019    25611.853   0.63308659 
  149000       149000    2749.8575    2797.2126    1795.7005    1001.5121    256.24003   -126.77976    25611.853   0.63308659 
  150000       150000    2976.7734    2721.2333     1788.008    933.22528    255.14234    684.13562    25611.853   0.63308659 
  151000       151000    3385.1316    2774.8254    1765.5785     1009.247    251.94172    1633.9203    25611.853   0.63308659 
  152000       152000    3466.4879    2776.9475    1829.2124    947.73507    261.02206    1846.0473    25611.853   0.63308659 
  153000       153000    3156.4785    2723.1183    1728.8523    994.26601    246.70103    1160.1981    25611.853   0.63308659 
  154000       154000    3030.3441    2757.8896     1783.145    974.74466     254.4484    729.41881    25611.853   0.63308659 
  155000       155000    3246.5288    2793.4341    1793.7371    999.69698    255.95986    1213.0314    25611.853   0.63308659 
  156000       156000    2690.4968    2686.8171    1707.1621    979.65499    243.60591    9.8515041    25611.853   0.63308659 
  157000       157000    3079.0343    2739.5667    1744.2273    995.33936    248.89499     908.8275    25611.853   0.63308659 
  158000       158000    3497.5957    2744.7113    1796.8675    947.84384    256.40655    2015.6329    25611.853   0.63308659 
  159000       159000    2395.7804    2645.1388      1708.03    937.10875    243.72976   -667.58578    25611.853   0.63308659 
  160000       160000    3318.4905    2786.9229    1773.1872    1013.7358    253.02746    1423.1201    25611.853   0.63308659 
  161000       161000    2563.4887     2741.102    1794.7039    946.39804    256.09782   -475.50884    25611.853   0.63308659 
  162000       162000    2500.5356    2697.7412    1715.0889    982.65228    244.73705   -527.96182    25611.853   0.63308659 
  163000       163000    2779.5598    2731.7323     1781.373    950.35925    254.19555    128.04446    25611.853   0.63308659 
  164000       164000    2952.9497    2712.0956    1708.5015    1003.5941    243.79704    644.81801    25611.853   0.63308659 
  165000       165000     2579.893    2758.2775    1767.9627    990.31485    252.28194   -477.57367    25611.853   0.63308659 
  166000       166000    3066.7222    2715.8027    1742.4956    973.30708    248.64788    939.48683    25611.853   0.63308659 
  167000       167000     2951.921    2705.9428    1723.3593    982.58348     245.9172    658.53624    25611.853   0.63308659 
  168000       168000    3134.1598    2701.6519    1719.3684    982.28346    245.34772    1157.9162    25611.853   0.63308659 
  169000       169000    2624.8899    2781.7702    1782.0994    999.67085     254.2992   -420.00236    25611.853   0.63308659 
  170000       170000    3038.1493    2806.9858    1783.5648    1023.4209    254.50831    618.87435    25611.853   0.63308659 
  171000       171000    3358.5941    2779.1924    1803.0974    976.09504    257.29554    1551.1824    25611.853   0.63308659 
  172000       172000    2659.0277    2710.3627    1722.0943    988.26847    245.73668   -137.43496    25611.853   0.63308659 
  173000       173000    2763.1844    2664.8788    1742.2819     922.5969    248.61738    263.18534    25611.853   0.63308659 
  174000       174000     2560.992    2757.9682    1779.1526    978.81556     253.8787   -527.34737    25611.853   0.63308659 
  175000       175000    2908.9183    2717.0774    1730.1104    986.96694    246.88056    513.59922    25611.853   0.63308659 
  176000       176000    2944.0558    2743.9653    1739.9821    1003.9833    248.28921    535.68513    25611.853   0.63308659 
  177000       177000    2593.0059    2829.8058    1804.6426    1025.1632    257.51603   -633.96402    25611.853   0.63308659 
  178000       178000    2331.9356    2788.3078    1783.3197    1004.9882    254.47333   -1221.8063    25611.853   0.63308659 
  179000       179000    2318.7237    2687.2511    1699.9194    987.33168    242.57241   -986.62668    25611.853   0.63308659 
  180000       180000    2498.1913    2825.6755    1822.3043    1003.3712     260.0363   -876.74541    25611.853   0.63308659 
  181000       181000    2494.6359    2780.0703    1791.9807    988.08962    255.70922   -764.16904    25611.853   0.63308659 
  182000       182000    2298.2175    2715.3942    1718.1597    997.23453    245.17523   -1116.8712    25611.853   0.63308659 
  183000       183000    3090.5415    2767.2165    1761.0677    1006.1488    251.29805    865.61035    25611.853   0.63308659 
  184000       184000    2495.2881    2783.3344     1781.416    1001.9184    254.20168    -771.1616    25611.853   0.63308659 
  185000       185000     2753.711    2741.3544    1734.4574     1006.897    247.50085    33.081295    25611.853   0.63308659 
  186000       186000    2824.2194    2699.2181    1713.7696    985.44849    244.54878    334.65547    25611.853   0.63308659 
  187000       187000    2754.5197    2829.2138    1787.1187    1042.0951    255.01544     -199.972    25611.853   0.63308659 
  188000       188000    2632.8457    2730.8825    1715.3386    1015.5439    244.77268   -262.46549    25611.853   0.63308659 
  189000       189000    2886.0712    2821.1786    1762.7579    1058.4207    251.53923     173.7314    25611.853   0.63308659 
  190000       190000    2027.2693     2707.649    1728.1884    979.46055    246.60629    -1821.522    25611.853   0.63308659 
  191000       191000    2628.5147    2764.4999    1752.4001    1012.0998    250.06121   -364.06148    25611.853   0.63308659 
  192000       192000    2845.7872    2716.5914    1756.4125    960.17894    250.63377    345.88464    25611.853   0.63308659 
  193000       193000    2857.9742    2751.0987    1774.1704    976.92835    253.16775    286.12867    25611.853   0.63308659 
  194000       194000    3138.1424    2748.0672    1774.3937    973.67351    253.19963    1044.3146    25611.853   0.63308659 
  195000       195000    2353.4615    2730.1209    1729.3571    1000.7638    246.77306   -1008.3979    25611.853   0.63308659 
  196000       196000    2716.5247    2671.1587    1735.6617    935.49706     247.6727    121.45437    25611.853   0.63308659 
  197000       197000     3161.642    2732.1492    1729.6652    1002.4839    246.81703    1149.8445    25611.853   0.63308659 
  198000       198000    2895.8099    2729.4774    1766.4873    962.99007    252.07141    445.30764    25611.853   0.63308659 
  199000       199000    3095.3189    2734.7308    1733.7882    1000.9427    247.40536     965.3714    25611.853   0.63308659 
  200000       200000    2465.3881    2701.2744    1712.4597    988.81473    244.36187   -631.51833    25611.853   0.63308659 
  201000       201000    2819.2532    2788.6993    1802.5893    986.11002    257.22303    81.799352    25611.853   0.63308659 
  202000       202000    2205.2439    2666.3804    1698.3121    968.06835    242.34305   -1234.5611    25611.853   0.63308659 
  203000       203000    2611.4119    2731.9546    1741.0787    990.87584     248.4457    -322.7187    25611.853   0.63308659 
  204000       204000    2767.2956    2799.9988    1795.8764    1004.1224    256.26512   -87.553471    25611.853   0.63308659 
  205000       205000    2504.9665    2748.3928    1741.7507     1006.642    248.54159   -651.70413    25611.853   0.63308659 
  206000       206000    2177.8865    2781.8326    1796.8875    984.94505    256.40941    -1616.893    25611.853   0.63308659 
  207000       207000    2698.2487    2660.2445    1751.0948    909.14965    249.87496    101.74551    25611.853   0.63308659 
  208000       208000    2601.6488    2752.0798     1730.401    1021.6787    246.92203   -402.73579    25611.853   0.63308659 
  209000       209000    2211.2327    2808.6898    1787.1577    1021.5321    255.02101   -1599.5206    25611.853   0.63308659 
  210000       210000    2959.0395    2716.7345    1693.1951    1023.5394    241.61288     648.7023    25611.853   0.63308659 
  211000       211000    3482.4386    2710.2865    1713.2892    996.99731    244.48023    2067.2167    25611.853   0.63308659 
  212000       212000    2436.1921    2729.5876     1750.372    979.21566    249.77181   -785.48266    25611.853   0.63308659 
  213000       213000     2407.255    2670.6321    1675.1946    995.43744    239.04427    -705.1168    25611.853   0.63308659 
  214000       214000    2512.8019    2719.7524    1715.9866    1003.7658    244.86514   -554.05092    25611.853   0.63308659 
  215000       215000    2528.9147    2684.3815    1709.1841    975.19737    243.89445   -416.21804    25611.853   0.63308659 
  216000       216000     2651.484    2761.8811    1752.4317    1009.4495    250.06572   -295.55689    25611.853   0.63308659 
  217000       217000    2756.4919    2752.2094    1749.2063     1003.003    249.60548    11.465278    25611.853   0.63308659 
  218000       218000    2493.8149    2798.9577    1795.6145    1003.3432    256.22775   -816.93245    25611.853   0.63308659 
  219000       219000    3014.6753    2696.6822      1705.52    991.16229    243.37159    851.33542    25611.853   0.63308659 
  220000       220000    2498.0807     2756.915    1786.3825     970.5325    254.91038   -692.95487    25611.853   0.63308659 
  221000       221000    2612.8703    2750.0858    1764.1479    985.93789    251.73759   -367.35539    25611.853   0.63308659 
  222000       222000    2826.5131    2702.1022    1720.2201    981.88207    245.46924    333.07478    25611.853   0.63308659 
  223000       223000    3516.4492    2753.8409    1783.7355    970.10534    254.53267    2041.6659    25611.853   0.63308659 
  224000       224000     3037.123    2779.9806     1795.699    984.28154    256.23982     688.4253    25611.853   0.63308659 
  225000       225000    3093.7248    2799.0556    1738.1169    1060.9387    248.02305    788.89255    25611.853   0.63308659 
  226000       226000    2655.4573    2689.3152    1740.6156    948.69955    248.37961   -90.644818    25611.853   0.63308659 
  227000       227000    3290.5768    2677.1355    1705.5546    971.58095    243.37653    1642.3137    25611.853   0.63308659 
  228000       228000    2758.1213    2747.4629    1786.2483    961.21459    254.89124    28.534879    25611.853   0.63308659 
  229000       229000    2884.2763    2688.8398    1726.1716    962.66823     246.3185    523.22541    25611.853   0.63308659 
  230000       230000    2923.3017     2757.386    1728.8542    1028.5318     246.7013    444.19176    25611.853   0.63308659 
  231000       231000    2395.9107    2731.9593    1713.3069    1018.6523    244.48276   -899.67382    25611.853   0.63308659 
  232000       232000    2633.7772     2794.877    1784.1621    1010.7149    254.59354   -431.29884    25611.853   0.63308659 
  233000       233000    2804.3539    2687.7659    1711.3443     976.4216     244.2027    312.13091    25611.853   0.63308659 
  234000       234000    3202.0579     2738.906    1756.4274    982.47861     250.6359    1239.9567    25611.853   0.63308659 
  235000       235000    2623.5006    2683.7214    1724.4789    959.24247    246.07696   -161.22393    25611.853   0.63308659 
  236000       236000    2567.1843    2751.5554    1732.8721    1018.6833    247.27464   -493.60102    25611.853   0.63308659 
  237000       237000    2371.4406    2695.0709    1697.3598    997.71107    242.20717   -866.42764    25611.853   0.63308659 
  238000       238000    2337.7778    2750.5601    1731.4206    1019.1395    247.06752   -1105.1065    25611.853   0.63308659 
  239000       239000    3151.3381    2789.1621    1783.6744    1005.4877    254.52395    969.62277    25611.853   0.63308659 
  240000       240000     3003.282    2732.7435     1717.182    1015.5615    245.03572    724.28943    25611.853   0.63308659 
  241000       241000    2409.9607    2751.0139    1762.8952    988.11863    251.55884    -913.0725    25611.853   0.63308659 
  242000       242000    2949.5098    2777.2133    1750.7624     1026.451    249.82752    461.27455    25611.853   0.63308659 
  243000       243000    2917.9375     2724.815    1718.6793    1006.1356    245.24938    517.03046    25611.853   0.63308659 
  244000       244000    2415.7094    2743.6188    1762.2535    981.36532    251.46726   -877.88377    25611.853   0.63308659 
  245000       245000    2804.5897     2762.271      1744.45     1017.821    248.92676    113.29632    25611.853   0.63308659 
  246000       246000    2341.5377    2701.7245    1737.9526    963.77188    247.99961   -964.29735    25611.853   0.63308659 
  247000       247000     3019.474    2789.1735    1772.2226    1016.9509    252.88982    616.56371    25611.853   0.63308659 
  248000       248000    2875.7096    2670.0749    1737.0742    933.00074    247.87426    550.52816    25611.853   0.63308659 
  249000       249000    3226.7203    2765.6121    1765.4945    1000.1176    251.92973    1234.4853    25611.853   0.63308659 
  250000       250000    2558.2923    2707.5508    1748.9351    958.61569    249.56677   -399.59676    25611.853   0.63308659 
  251000       251000    2951.5274    2692.9427    1692.6266    1000.3161    241.53175    692.28669    25611.853   0.63308659 
  252000       252000    2746.3968    2776.2625    1757.3078    1018.9546    250.76153   -79.956821    25611.853   0.63308659 
  253000       253000    2676.7861    2783.0097    1743.4338    1039.5758    248.78176   -284.38326    25611.853   0.63308659 
  254000       254000     2840.285     2729.996    1767.8547    962.14123    252.26654    295.26739    25611.853   0.63308659 
  255000       255000    2400.7008    2755.9295    1748.3312    1007.5983     249.4806   -951.02335    25611.853   0.63308659 
  256000       256000    2517.6958    2682.0473    1724.7965    957.25082    246.12228   -440.00413    25611.853   0.63308659 
  257000       257000    2661.7948    2716.6172    1749.5009    967.11632    249.64751   -146.77137    25611.853   0.63308659 
  258000       258000    3276.2701    2819.0286    1757.9946     1061.034    250.85953    1224.1334    25611.853   0.63308659 
  259000       259000    2505.1252    2697.8674     1744.638    953.22932     248.9536   -516.01203    25611.853   0.63308659 
  260000       260000    2960.7464    2763.5424    1765.5484    997.99399    251.93744    527.95716    25611.853   0.63308659 
  261000       261000    3241.8294    2717.0665     1761.287     955.7795    251.32934    1404.9027    25611.853   0.63308659 
  262000       262000    2526.6473    2675.8995    1700.8256    975.07397    242.70172   -399.58011    25611.853   0.63308659 
  263000       263000    3095.0412    2752.2095    1733.9968    1018.2127    247.43513    917.83381    25611.853   0.63308659 
  264000       264000    2542.8932    2785.2323    1768.5177    1016.7146    252.36114   -648.79345    25611.853   0.63308659 
  265000       265000    3008.4428    2745.1646    1754.9155    990.24908    250.42015    704.85228    25611.853   0.63308659 
  266000       266000    2253.1235    2750.9364    1748.3004     1002.636     249.4762   -1332.7518    25611.853   0.63308659 
  267000       267000    2673.1654    2745.5907    1757.3405    988.25013     250.7662   -193.89798    25611.853   0.63308659 
  268000       268000    2909.1141    2721.4184    1751.0504    970.36798    249.86862    502.50151    25611.853   0.63308659 
  269000       269000    3385.3117    2814.9551    1773.4373    1041.5179    253.06314    1526.9668    25611.853   0.63308659 
  270000       270000    2830.1264    2727.9094    1717.3874     1010.522    245.06503    273.65692    25611.853   0.63308659 
  271000       271000    3104.7071    2695.9537     1732.172    963.78174    247.17473    1094.3204    25611.853   0.63308659 
  272000       272000    2196.2228    2701.2543    1740.1835    961.07079    248.31795   -1352.0773    25611.853   0.63308659 
  273000       273000    2694.2169    2771.7953    1771.8855    999.90982    252.84171   -207.69385    25611.853   0.63308659 
  274000       274000    2515.7412    2675.6465    1745.3424    930.30411     249.0541   -428.10059    25611.853   0.63308659 
  275000       275000    2811.0933    2751.5723    1743.5058    1008.0665    248.79203    159.35066    25611.853   0.63308659 
  276000       276000    2699.1086    2682.3345    1673.7797    1008.5548    238.84237     44.90769    25611.853   0.63308659 
  277000       277000    3134.8173    2729.0991    1741.8059    987.29319    248.54946    1086.1945    25611.853   0.63308659 
  278000       278000    2656.2649    2681.7308    1716.5308    965.19999    244.94279   -68.177658    25611.853   0.63308659 
  279000       279000    2849.0968    2760.8694    1746.6503     1014.219    249.24074     236.2038    25611.853   0.63308659 
  280000       280000    2627.7966    2756.5984    1782.3335    974.26488     254.3326   -344.83005    25611.853   0.63308659 
  281000       281000    2139.7376    2707.5398    1745.9463    961.59354    249.14028   -1520.1281    25611.853   0.63308659 
  282000       282000    2369.3763    2694.0676    1718.0436    976.02397    245.15867    -869.2681    25611.853   0.63308659 
  283000       283000    2654.5726    2725.5556    1739.2949    986.26063    248.19115   -190.03668    25611.853   0.63308659 
  284000       284000    2853.1432    2810.8001    1802.4266    1008.3735    257.19982    113.36142    25611.853   0.63308659 
  285000       285000    2995.5299    2742.3426    1742.6711     999.6715    248.67293    677.83659    25611.853   0.63308659 
  286000       286000    2789.6724    2759.9539    1780.0504    979.90347    254.00681    79.562885    25611.853   0.63308659 
  287000       287000    3442.3877    2723.6084    1744.1557    979.45276    248.88476     1924.326    25611.853   0.63308659 
  288000       288000    2447.5874    2724.7081    1764.1886    960.51954    251.74339   -741.91153    25611.853   0.63308659 
  289000       289000    2997.8506    2827.3629    1807.8781    1019.4849    257.97772    456.43196    25611.853   0.63308659 
  290000       290000    2467.0452    2733.8013    1744.5626    989.23876    248.94283    -714.1633    25611.853   0.63308659 
  291000       291000    2844.9826    2657.7804    1688.6231    969.15739    240.96046    501.18012    25611.853   0.63308659 
  292000       292000    2846.7457    2757.8597    1794.8616    962.99813    256.12032    237.96678    25611.853   0.63308659 
  293000       293000    2687.7409    2696.0589    1733.9921    962.06688    247.43445   -22.269091    25611.853   0.63308659 
  294000       294000    2652.5375    2728.3875    1752.5952    975.79233    250.08905   -203.06667    25611.853   0.63308659 
  295000       295000    3575.2567    2748.1271    1747.3856    1000.7415    249.34567     2214.403    25611.853   0.63308659 
  296000       296000    2873.7201    2700.8154    1744.8959     955.9195    248.99039    462.90276    25611.853   0.63308659 
  297000       297000    3286.2364    2763.9085    1743.2445     1020.664    248.75475    1398.3836    25611.853   0.63308659 
  298000       298000     3130.276     2689.293     1720.648    968.64508     245.5303    1180.6057    25611.853   0.63308659 
  299000       299000    2948.8675    2742.7311    1736.0821     1006.649    247.73269    551.87146    25611.853   0.63308659 
  300000       300000    2877.1318    2770.3672    1775.0588    995.30843    253.29453     285.8315    25611.853   0.63308659 
  301000       301000    2671.9005    2702.8087    1698.2772    1004.5315    242.33807   -82.747866    25611.853   0.63308659 
  302000       302000    2708.3113    2754.7426    1725.5799    1029.1627    246.23406    -124.3064    25611.853   0.63308659 
  303000       303000    2935.8368    2754.1517    1776.5922    977.55941    253.51335    486.40997    25611.853   0.63308659 
  304000       304000    2993.5649    2751.7765    1746.6781    1005.0983    249.24471    647.31946    25611.853   0.63308659 
  305000       305000    2591.6193    2749.5898    1756.9378    992.65202    250.70872   -422.92076    25611.853   0.63308659 
  306000       306000    3350.4228    2743.8929    1767.8215    976.07145    252.26179    1623.8102    25611.853   0.63308659 
  307000       307000    2632.1726    2757.4937    1771.4523    986.04137     252.7799   -335.51133    25611.853   0.63308659 
  308000       308000     3732.276    2803.5283    1774.1018    1029.4265    253.15797    2486.4567    25611.853   0.63308659 
  309000       309000    2336.2679    2748.9087    1750.2553     998.6534    249.75516   -1104.7278    25611.853   0.63308659 
  310000       310000     2125.166    2745.6819    1791.5256     954.1563    255.64428   -1661.2538    25611.853   0.63308659 
  311000       311000    2773.2871    2678.4836    1715.9968    962.48682    244.86659    253.80926    25611.853   0.63308659 
  312000       312000    2384.5816    2751.7038    1752.1535    999.55032    250.02603   -982.86488    25611.853   0.63308659 
  313000       313000    3189.9605    2755.8046     1742.099    1013.7056    248.59129    1162.3282    25611.853   0.63308659 
  314000       314000    3067.2909    2833.1929     1781.226    1051.9669    254.17457    626.73031    25611.853   0.63308659 
  315000       315000    3075.3139    2764.8529    1778.5769    986.27605    253.79655    831.17043    25611.853   0.63308659 
  316000       316000    2332.7609    2708.0979      1743.86     964.2379    248.84257   -1004.8573    25611.853   0.63308659 
  317000       317000    2771.3376    2790.7019    1784.4651    1006.2368    254.63678   -51.842476    25611.853   0.63308659 
  318000       318000    2771.7573    2718.0903    1770.4527    947.63761    252.63726    143.67795    25611.853   0.63308659 
  319000       319000     3077.276    2768.6519    1803.0772    965.57463    257.29266    826.25287    25611.853   0.63308659 
  320000       320000    2674.2126    2690.2003    1736.9969    953.20337    247.86324   -42.802573    25611.853   0.63308659 
  321000       321000    2875.3049    2740.3085    1761.4851    978.82339    251.35761    361.41437    25611.853   0.63308659 
  322000       322000    3086.9762    2763.7085    1774.8815    988.82696    253.26923    865.45681    25611.853   0.63308659 
  323000       323000    2781.0336    2667.4801    1719.3682     948.1119    245.34768    304.00721    25611.853   0.63308659 
  324000       324000    2638.6345    2774.1725    1754.8599    1019.3126    250.41222   -362.86431    25611.853   0.63308659 
  325000       325000    3110.1324    2799.7227    1741.9247     1057.798    248.56642    831.03332    25611.853   0.63308659 
  326000       326000    2238.0712    2726.4666    1733.7921    992.67456    247.40592   -1307.5391    25611.853   0.63308659 
  327000       327000    3434.1039    2619.3432    1699.3116    920.03154    242.48568     2181.289    25611.853   0.63308659 
  328000       328000    2489.4981     2762.808    1763.1761    999.63189    251.59891   -731.70902    25611.853   0.63308659 
  329000       329000    2700.8656    2818.7005    1765.6455     1053.055    251.95128   -315.46913    25611.853   0.63308659 
  330000       330000     2480.946    2700.4428    1750.8028    949.63994    249.83329    -587.6398    25611.853   0.63308659 
  331000       331000    2257.1863    2677.0237    1749.8583    927.16546    249.69851   -1123.9948    25611.853   0.63308659 
  332000       332000    2477.5585     2710.955    1750.0994     960.8556    249.73292    -624.8525    25611.853   0.63308659 
  333000       333000    2552.3422    2806.3036    1777.7252    1028.5785    253.67501   -679.90907    25611.853   0.63308659 
  334000       334000    2586.7019    2675.8955    1754.3858    921.50967    250.34457    -238.7904    25611.853   0.63308659 
  335000       335000    2474.8945    2733.1814     1727.096    1006.0854    246.45041   -691.48931    25611.853   0.63308659 
  336000       336000    2597.9354    2745.7183    1762.3973    983.32097    251.48778   -395.64627    25611.853   0.63308659 
  337000       337000    2571.2764    2682.6122    1713.6435    968.96868    244.53079   -298.06987    25611.853   0.63308659 
  338000       338000    2745.0221    2715.5656    1752.3618    963.20382    250.05575     78.86145    25611.853   0.63308659 
  339000       339000    2600.9229    2747.8208     1767.691    980.12975    252.24318   -393.27705    25611.853   0.63308659 
  340000       340000    2504.5482    2699.4858    1744.0203    955.46552    248.86544   -521.88979    25611.853   0.63308659 
  341000       341000    3265.8873     2768.781    1765.4874    1003.2936    251.92872    1330.8602    25611.853   0.63308659 
  342000       342000    2613.6877    2695.7598    1744.1985    951.56128    248.89087   -219.72456    25611.853   0.63308659 
  343000       343000    2764.1839    2760.5893    1791.4133    969.17605    255.62826    9.6232872    25611.853   0.63308659 
  344000       344000    2913.5933    2851.6742    1766.3021     1085.372    252.04499    165.77069    25611.853   0.63308659 
  345000       345000    2865.2677    2729.6035     1743.361     986.2425    248.77137    363.20203    25611.853   0.63308659 
  346000       346000    3401.6491    2747.5619    1752.2728    995.28909    250.04305    1751.1317    25611.853   0.63308659 
  347000       347000    3053.7134     2706.652    1742.7854    963.86657    248.68924    929.15774    25611.853   0.63308659 
  348000       348000    2848.0908     2792.768    1789.4279      1003.34    255.34496    148.11098    25611.853   0.63308659 
  349000       349000    3080.2332    2731.6904    1773.9368    957.75361    253.13442    933.12384    25611.853   0.63308659 
  350000       350000    2119.8543    2723.4443    1738.2816    985.16273    248.04655   -1615.9397    25611.853   0.63308659 
  351000       351000    2853.5329    2727.8325    1737.6393    990.19319     247.9549      336.527    25611.853   0.63308659 
  352000       352000    2293.5273    2784.3827    1747.9883    1036.3945    249.43166   -1314.1251    25611.853   0.63308659 
  353000       353000    2442.7394    2795.5034    1790.2855    1005.2178    255.46733   -944.42471    25611.853   0.63308659 
  354000       354000    2470.0046    2710.2247    1732.3096    977.91518    247.19437   -643.12079    25611.853   0.63308659 
  355000       355000    2179.1862    2775.3298    1781.1677    994.16213    254.16625    -1596.004    25611.853   0.63308659 
  356000       356000    3263.0192    2789.7178    1771.2868     1018.431    252.75629     1267.129    25611.853   0.63308659 
  357000       357000    2887.1075    2691.8701     1741.049    950.82114    248.44145    522.69218    25611.853   0.63308659 
  358000       358000    2398.4461    2707.5322    1744.1247    963.40754    248.88034   -827.48968    25611.853   0.63308659 
  359000       359000    2108.4804    2719.8831    1701.7665    1018.1166    242.83599   -1636.8561    25611.853   0.63308659 
  360000       360000    2486.6258    2635.5024    1694.2741    941.22833    241.76685   -398.57453    25611.853   0.63308659 
  361000       361000    2670.9381     2722.086    1747.8773     974.2087    249.41583   -136.93377    25611.853   0.63308659 
  362000       362000    3212.9872    2776.6574    1750.0946    1026.5629    249.73223    1168.1481    25611.853   0.63308659 
  363000       363000    2771.5016    2737.9417     1758.215     979.7267    250.89098    89.847015    25611.853   0.63308659 
  364000       364000    2721.8952    2754.0472    1748.3331    1005.7141    249.48087   -86.077957    25611.853   0.63308659 
  365000       365000    2526.5673    2763.7825    1758.3134    1005.4692    250.90502   -635.07598    25611.853   0.63308659 
  366000       366000    2562.7376    2762.5384    1779.7274      982.811    253.96072   -534.90962    25611.853   0.63308659 
  367000       367000    3276.1488     2800.757    1797.3025    1003.4545    256.46863    1272.7258    25611.853   0.63308659 
  368000       368000    3129.3163    2765.7488    1758.3221    1007.4268    250.90626    973.34783    25611.853   0.63308659 
  369000       369000    2206.9541    2710.7389    1802.6575    908.08142    257.23276   -1348.7399    25611.853   0.63308659 
  370000       370000    2228.1104    2681.7478    1711.4368    970.31102     244.2159   -1214.4844    25611.853   0.63308659 
  371000       371000    2893.3559    2690.7279    1758.2764    932.45145    250.89975    542.47863    25611.853   0.63308659 
  372000       372000    3108.9076     2793.203    1761.7114    1031.4916     251.3899    845.20899    25611.853   0.63308659 
  373000       373000     2075.124    2727.9007    1762.1459    965.75473    251.45191    -1747.623    25611.853   0.63308659 
  374000       374000    2376.0763    2753.7177    1771.6726    982.04512    252.81133   -1011.0267    25611.853   0.63308659 
  375000       375000    3073.0036    2691.8893    1721.5844    970.30491    245.66393    1020.3246    25611.853   0.63308659 
  376000       376000    2545.7214    2755.8931    1745.6212    1010.2719     249.0939    -562.6748    25611.853   0.63308659 
  377000       377000    2245.3554    2735.2313    1775.5044    959.72688    253.35812   -1311.5026    25611.853   0.63308659 
  378000       378000    2813.1953    2666.7158    1752.4654    914.25048    250.07053      392.157    25611.853   0.63308659 
  379000       379000     2021.132    2740.5678     1778.033    962.53484    253.71894   -1926.0839    25611.853   0.63308659 
  380000       380000    3108.2698    2753.6182    1733.1552    1020.4631    247.31503    949.47823    25611.853   0.63308659 
  381000       381000    2313.8498    2668.6537    1708.7958    959.85793    243.83903   -949.88604    25611.853   0.63308659 
  382000       382000    3292.5428    2755.5937    1713.7573    1041.8363    244.54703    1437.5278    25611.853   0.63308659 
  383000       383000    3008.2101    2702.2073    1713.0892    989.11818    244.45169    819.23479    25611.853   0.63308659 
  384000       384000    3174.2104    2702.3318      1730.79    971.54175    246.97753    1263.3201    25611.853   0.63308659 
  385000       385000    2986.9387    2786.2522    1753.8674    1032.3849    250.27059    537.28059    25611.853   0.63308659 
  386000       386000    2887.3649    2830.4482    1786.8905    1043.5577    254.98287    152.37832    25611.853   0.63308659 
  387000       387000    2817.0431    2684.5057    1745.8411    938.66459    249.12527      354.831    25611.853   0.63308659 
  388000       388000    3142.1001    2705.5723    1737.2866    968.28566    247.90458    1168.6783    25611.853   0.63308659 
  389000       389000    3048.8286    2752.2385     1759.988    992.25047    251.14398    794.03538    25611.853   0.63308659 
  390000       390000    2666.1974    2680.0757    1722.4843    957.59147    245.79233   -37.155357    25611.853   0.63308659 
  391000       391000    2383.3248    2792.6492    1713.8504    1078.7989    244.56031   -1095.8491    25611.853   0.63308659 
  392000       392000     3382.057    2711.3299    1762.3944    948.93553    251.48737    1795.6801    25611.853   0.63308659 
  393000       393000    2998.7356    2721.8098    1736.6014     985.2084    247.80679    741.38966    25611.853   0.63308659 
  394000       394000    2532.1259    2784.1737    1792.3528    991.82085    255.76232   -674.78568    25611.853   0.63308659 
  395000       395000    1957.0652    2795.3439     1769.359    1025.9848    252.48119   -2244.2514    25611.853   0.63308659 
  396000       396000    2227.8298    2725.9483    1706.1156    1019.8327    243.45659     -1333.57    25611.853   0.63308659 
  397000       397000    3206.7627    2800.8787    1798.6766    1002.2021    256.66471    1086.6382    25611.853   0.63308659 
  398000       398000    2208.3337    2649.9406    1708.1431    941.79747     243.7459   -1182.2763    25611.853   0.63308659 
  399000       399000    2672.6612    2725.1535    1736.9646    988.18887    247.85863   -140.53299    25611.853   0.63308659 
  400000       400000    3056.4936     2855.196    1799.4483    1055.7477    256.77482    538.91672    25611.853   0.63308659 
  401000       401000    1980.6884    2736.5187    1719.6786    1016.8401    245.39198   -2023.5193    25611.853   0.63308659 
  402000       402000    2706.1806    2692.6859    1733.3254    959.36046    247.33933    36.128248    25611.853   0.63308659 
  403000       403000    2627.3964    2778.3263    1768.2761    1010.0502    252.32666    -404.0718    25611.853   0.63308659 
  404000       404000    2830.1158    2731.2865    1737.8439    993.44256     247.9841    264.58737    25611.853   0.63308659 
  405000       405000    2772.6996    2768.1129    1747.2842    1020.8287     249.3312    12.279657    25611.853   0.63308659 
  406000       406000    3605.4296    2823.3678    1810.6196    1012.7483    258.36892    2093.7468    25611.853   0.63308659 
  407000       407000    2552.7084    2736.2798    1749.9731     986.3067     249.7149   -491.45999    25611.853   0.63308659 
  408000       408000    2055.7337    2747.9666    1744.9149    1003.0517     248.9931   -1853.2555    25611.853   0.63308659 
  409000       409000    3027.9545     2641.724    1703.9492    937.77487    243.14744    1034.0216    25611.853   0.63308659 
  410000       410000       2500.3    2742.2377    1771.6703    970.56744    252.81101   -647.71914    25611.853   0.63308659 
  411000       411000    3040.5988    2680.8988    1722.8546     958.0442    245.84518    962.99399    25611.853   0.63308659 
  412000       412000    3047.8936    2756.6376    1751.5364    1005.1012    249.93797    779.75474    25611.853   0.63308659 
  413000       413000     3096.029    2659.6927    1684.0617    975.63092    240.30958    1168.1659    25611.853   0.63308659 
  414000       414000    3098.6541    2737.6253    1756.6313      980.994      250.665    966.55135    25611.853   0.63308659 
  415000       415000    3106.4821    2761.1137     1764.495    996.61867    251.78712    924.62504    25611.853   0.63308659 
  416000       416000    3166.0545    2704.8677    1741.5712    963.29657    248.51597    1234.6958    25611.853   0.63308659 
  417000       417000     2582.441    2734.3085    1800.7679    933.54061    256.96312   -406.58164    25611.853   0.63308659 
  418000       418000    2440.1079    2799.1409    1781.8562    1017.2846     254.2645   -961.20824    25611.853   0.63308659 
  419000       419000    3285.4569    2696.2793    1752.1681    944.11121     250.0281    1577.3547    25611.853   0.63308659 
  420000       420000    2062.1575    2764.4722    1783.0284    981.44388    254.43176   -1880.2468    25611.853   0.63308659 
  421000       421000    2771.1365    2816.4817    1786.7898    1029.6919     254.9685   -121.39895    25611.853   0.63308659 
  422000       422000     2822.829    2754.5612    1772.7444     981.8168    252.96428    182.76746    25611.853   0.63308659 
  423000       423000    2038.8513    2761.6638    1728.5735    1033.0904    246.66124   -1935.1238    25611.853   0.63308659 
  424000       424000    2186.1562     2796.754    1760.8777    1035.8763    251.27094   -1634.7012    25611.853   0.63308659 
  425000       425000    2073.4097    2728.3275    1714.4934    1013.8341    244.65207   -1753.3551    25611.853   0.63308659 
  426000       426000    2738.6775    2778.7247    1770.4372    1008.2876    252.63504   -107.21514    25611.853   0.63308659 
  427000       427000    2930.8291    2711.1437    1751.0171    960.12663    249.86387    588.14468    25611.853   0.63308659 
  428000       428000    2531.3076    2768.1104    1756.2078    1011.9026    250.60456   -633.97185    25611.853   0.63308659 
  429000       429000    2842.8904    2716.8606    1762.9495    953.91115    251.56657    337.40863    25611.853   0.63308659 
  430000       430000    2913.3328    2838.4228    1798.5138    1039.9091    256.64147    200.55008    25611.853   0.63308659 
  431000       431000    2626.3617    2774.3564    1801.8942    972.46219    257.12384   -396.21337    25611.853   0.63308659 
  432000       432000    3035.7579    2736.5494    1764.1565    972.39291    251.73881    801.04519    25611.853   0.63308659 
  433000       433000    2886.0059    2696.3085    1707.4318    988.87668     243.6444    507.86069    25611.853   0.63308659 
  434000       434000     2840.341    2828.8039    1788.7214    1040.0825    255.24413    30.887312    25611.853   0.63308659 
  435000       435000    2531.7522     2714.356    1760.3442    954.01184    251.19481   -488.86972    25611.853   0.63308659 
  436000       436000    3323.6707    2789.6588    1793.8535     995.8053    255.97646    1429.6642    25611.853   0.63308659 
  437000       437000    2503.3617    2710.1904    1738.5852     971.6052    248.08988   -553.72455    25611.853   0.63308659 
  438000       438000    2753.1175    2775.1294    1762.6224     1012.507     251.5199   -58.930622    25611.853   0.63308659 
  439000       439000    3070.7733    2735.6895    1786.3103    949.37916    254.90008    897.09131    25611.853   0.63308659 
  440000       440000     2792.111     2766.706    1783.9599    982.74616    254.56468    68.014594    25611.853   0.63308659 
  441000       441000    2927.7403    2718.9785    1732.1042    986.87422    247.16507    558.90027    25611.853   0.63308659 
  442000       442000    2727.4053     2741.143     1768.066    973.07706    252.29668    -36.77894    25611.853   0.63308659 
  443000       443000    2109.5051    2662.3014    1706.4971    955.80425    243.51103   -1479.9539    25611.853   0.63308659 
  444000       444000     2461.298    2767.7338    1787.0894    980.64437    255.01126   -820.39422    25611.853   0.63308659 
  445000       445000    2441.4292    2767.1222    1741.6598    1025.4624    248.52862   -871.95001    25611.853   0.63308659 
  446000       446000    2741.9705    2709.5683    1709.8936    999.67472    243.99569    86.747575    25611.853   0.63308659 
  447000       447000    3225.4795    2831.0221    1801.6458    1029.3763     257.0884     1056.047    25611.853   0.63308659 
  448000       448000    2918.4222    2727.2875     1768.332     958.9555    252.33464    511.70866    25611.853   0.63308659 
  449000       449000     3640.649     2735.954    1759.5793    976.37467    251.08566    2422.0624    25611.853   0.63308659 
  450000       450000    3198.8437    2768.0522    1742.6002    1025.4521     248.6628    1153.3211    25611.853   0.63308659 
  451000       451000    2267.5788    2703.5663    1772.2994    931.26688    252.90077   -1167.2319    25611.853   0.63308659 
  452000       452000    2772.8284    2740.3664    1751.9383     988.4281    249.99531     86.90775    25611.853   0.63308659 
  453000       453000    2854.7817    2732.1841    1764.3286    967.85548    251.76338    328.21992    25611.853   0.63308659 
  454000       454000    2745.6525    2689.3543    1726.7409    962.61342    246.39974    150.72225    25611.853   0.63308659 
  455000       455000    2656.2061    2765.8598    1755.3485    1010.5113    250.48194   -293.56623    25611.853   0.63308659 
  456000       456000    2661.0247    2775.0178     1782.826    992.19181    254.40289   -305.18411    25611.853   0.63308659 
  457000       457000    2349.1385    2729.4585    1737.3191    992.13944    247.90921   -1018.1981    25611.853   0.63308659 
  458000       458000    3122.3359    2821.4156    1782.2729    1039.1427    254.32396    805.62824    25611.853   0.63308659 
  459000       459000    2882.2213     2694.835    1723.5143    971.32071    245.93932    501.67326    25611.853   0.63308659 
  460000       460000    2556.6033    2660.8179     1686.911    973.90694    240.71616   -279.00488    25611.853   0.63308659 
  461000       461000    2903.3647    2740.4555    1762.2066    978.24889    251.46057    436.14277    25611.853   0.63308659 
  462000       462000    3005.8535     2806.184    1782.1757    1024.0083    254.31009    534.55794    25611.853   0.63308659 
  463000       463000    2699.2086    2683.8569    1684.3829    999.47401    240.35541    41.099703    25611.853   0.63308659 
  464000       464000    2715.6319    2727.5652    1739.9087    987.65659    248.27873   -31.948035    25611.853   0.63308659 
  465000       465000    2629.0307    2777.7502    1773.3053    1004.4449    253.04431   -398.15384    25611.853   0.63308659 
  466000       466000    2457.0139    2831.1768    1793.9145    1037.2623    255.98518   -1001.7142    25611.853   0.63308659 
  467000       467000    2740.9153    2736.4014      1728.14    1008.2614    246.59939    12.084512    25611.853   0.63308659 
  468000       468000    2629.2483    2682.2169    1706.0023    976.21463    243.44041    -141.8083    25611.853   0.63308659 
  469000       469000    2359.6939    2708.5902     1739.996    968.59416     248.2912   -934.06996    25611.853   0.63308659 
  470000       470000    2934.8937    2800.2482     1803.309    996.93929    257.32573    360.47462    25611.853   0.63308659 
  471000       471000    3117.4468    2737.5241    1771.8747    965.64949    252.84016    1017.1342    25611.853   0.63308659 
  472000       472000    3424.6361    2751.9395    1751.1862    1000.7533      249.888    1800.9529    25611.853   0.63308659 
  473000       473000    2772.2938    2759.3791    1763.4384    995.94066    251.63634    34.575579    25611.853   0.63308659 
  474000       474000     2276.388    2736.2094     1766.191    970.01838    252.02913   -1231.0402    25611.853   0.63308659 
  475000       475000    2812.6802    2697.9437    1712.7911     985.1526    244.40915    307.17425    25611.853   0.63308659 
  476000       476000    3082.4359    2734.7251    1718.5157    1016.2094    245.22603    930.89619    25611.853   0.63308659 
  477000       477000    2246.5394    2698.7812    1716.1192    982.66203    244.88406   -1210.7481    25611.853   0.63308659 
  478000       478000     2368.192    2688.6988     1718.665     970.0338    245.24734   -858.06525    25611.853   0.63308659 
  479000       479000    2357.8903     2749.626    1737.2639    1012.3621    247.90134   -1048.7603    25611.853   0.63308659 
  480000       480000    2904.3709    2727.8381    1732.7895    995.04857    247.26286    472.61608    25611.853   0.63308659 
  481000       481000    2538.5624    2672.3863    1706.4185     965.9678    243.49981   -358.27533    25611.853   0.63308659 
  482000       482000    2897.8405     2705.409    1745.7821     959.6269    249.11684    515.18037    25611.853   0.63308659 
  483000       483000    2717.7942    2681.7375    1743.7255    938.01196    248.82338    96.531604    25611.853   0.63308659 
  484000       484000    2353.3057    2705.0862    1727.4084    977.67782    246.49499   -941.79194    25611.853   0.63308659 
  485000       485000    2728.0246    2854.1894    1827.7787    1026.4107    260.81747   -337.77013    25611.853   0.63308659 
  486000       486000    3041.4274    2726.2711    1738.1275    988.14359    248.02456    843.74093    25611.853   0.63308659 
  487000       487000    2799.2596    2736.0295    1771.1704     964.8591    252.73967    169.28038    25611.853   0.63308659 
  488000       488000    1941.9894    2724.4706    1748.5482    975.92236    249.51156   -2094.8697    25611.853   0.63308659 
  489000       489000    2771.1331    2785.3021    1728.7676    1056.5345    246.68894   -37.933497    25611.853   0.63308659 
  490000       490000    2840.8491    2851.6123    1813.8811    1037.7312    258.83434   -28.815333    25611.853   0.63308659 
  491000       491000    2915.7725    2706.5792    1733.7442    972.83498    247.39908    560.05527    25611.853   0.63308659 
  492000       492000    2890.8725    2777.8872    1781.2579    996.62928    254.17912    302.48592    25611.853   0.63308659 
  493000       493000    2260.1548    2757.0226    1776.2214    980.80117    253.46043   -1330.2214    25611.853   0.63308659 
  494000       494000    2253.2364    2744.8941    1728.9052    1015.9889    246.70858   -1316.2731    25611.853   0.63308659 
  495000       495000     2438.784    2821.2239    1810.4435    1010.7804     258.3438   -1023.8734    25611.853   0.63308659 
  496000       496000    2337.4938    2696.2053    1757.1629    939.04241    250.74085   -960.34754    25611.853   0.63308659 
  497000       497000    2978.9155    2776.0679     1780.669    995.39887    254.09509    543.06654    25611.853   0.63308659 
  498000       498000    2674.6869    2697.5162    1702.0293    995.48696    242.87348   -61.118988    25611.853   0.63308659 
  499000       499000    3270.7779    2836.5851    1797.1088    1039.4763    256.44099     1162.427    25611.853   0.63308659 
  500000       500000    2498.6829    2754.5472    1784.1386    970.40858    254.59018   -685.00333    25611.853   0.63308659 
  501000       501000    3164.4959    2726.9143    1709.5186    1017.3957    243.94218    1171.4996    25611.853   0.63308659 
  502000       502000    2974.0485     2765.656    1761.8067    1003.8494     251.4035    557.91118    25611.853   0.63308659 
  503000       503000    2084.8847    2687.0847    1738.2345    948.85016    248.03984   -1612.2182    25611.853   0.63308659 
  504000       504000    2814.3326    2701.7358    1727.8998    973.83596    246.56511    301.44582    25611.853   0.63308659 
  505000       505000    3023.7823    2813.7567    1769.9468    1043.8098    252.56507    562.28359    25611.853   0.63308659 
  506000       506000    2928.7292    2790.3646    1780.1402    1010.2245    254.01962    370.43155    25611.853   0.63308659 
  507000       507000    3131.9844    2761.3767    1767.5382     993.8385    252.22137    992.19616    25611.853   0.63308659 
  508000       508000    2829.7799    2728.8939    1736.2738    992.62009    247.76005    270.09338    25611.853   0.63308659 
  509000       509000    2941.6993    2749.3803    1785.7349    963.64547    254.81797    514.87896    25611.853   0.63308659 
  510000       510000    3129.0272    2781.8479    1755.9869     1025.861    250.57304    929.47347    25611.853   0.63308659 
  511000       511000    2687.7347    2671.7553    1688.3097    983.44568    240.91574    42.780254    25611.853   0.63308659 
  512000       512000    2463.4719    2780.9418     1765.219    1015.7228    251.89043   -849.93479    25611.853   0.63308659 
  513000       513000    2702.0724    2839.3874    1814.4766    1024.9108    258.91931   -367.62165    25611.853   0.63308659 
  514000       514000    2602.4609    2767.7238    1781.2051     986.5187    254.17159   -442.44423    25611.853   0.63308659 
  515000       515000    2910.1468    2711.5297    1761.0845    950.44521    251.30045     531.7406    25611.853   0.63308659 
  516000       516000    2457.9805    2772.8211    1770.0351     1002.786    252.57767   -842.89579    25611.853   0.63308659 
  517000       517000    2209.9396    2692.6802    1727.1242    965.55602    246.45444      -1292.4    25611.853   0.63308659 
  518000       518000    1955.9536    2694.6343    1728.1668    966.46749    246.60322   -1977.6065    25611.853   0.63308659 
  519000       519000    2489.5332    2785.1809    1796.8604    988.32049    256.40554   -791.51203    25611.853   0.63308659 
  520000       520000     3182.401    2733.4269    1730.6338    1002.7931    246.95524    1201.9999    25611.853   0.63308659 
  521000       521000    2576.7103     2708.127    1758.3138    949.81329    250.90507   -351.83064    25611.853   0.63308659 
  522000       522000    2580.4995    2672.7989    1697.3486    975.45029    242.20557   -247.10539    25611.853   0.63308659 
  523000       523000    1860.4292    2741.7244    1765.0119    976.71253    251.86087   -2359.4159    25611.853   0.63308659 
  524000       524000     2568.209    2733.0749    1739.8199    993.25504    248.26606   -441.38148    25611.853   0.63308659 
  525000       525000    2725.2079     2676.025    1717.1303    958.89472    245.02834    131.67321    25611.853   0.63308659 
  526000       526000    2606.3578       2747.2    1781.6781    965.52187    254.23908   -377.06468    25611.853   0.63308659 
  527000       527000    2339.7319    2825.3198    1857.1926     968.1272    265.01473   -1300.0228    25611.853   0.63308659 
  528000       528000      2358.97    2764.0407    1759.7018    1004.3388    251.10315   -1084.4609    25611.853   0.63308659 
  529000       529000    3404.6597    2748.0911    1746.3213    1001.7697     249.1938    1757.7748    25611.853   0.63308659 
  530000       530000    2916.6915    2739.4056    1724.4666     1014.939    246.07521    474.63247    25611.853   0.63308659 
  531000       531000    3304.2022    2829.6366    1784.2679    1045.3687    254.60864    1270.5138    25611.853   0.63308659 
  532000       532000    2946.3045    2734.0355    1736.8571    997.17843    247.84328    568.28943    25611.853   0.63308659 
  533000       533000    2368.3826     2713.848    1711.5666    1002.2813    244.23442   -924.88462    25611.853   0.63308659 
  534000       534000    3025.7354    2778.3937    1791.9216    986.47213    255.70079    662.18664    25611.853   0.63308659 
  535000       535000    3126.6816    2790.2016    1788.3665    1001.8351    255.19349     900.8291    25611.853   0.63308659 
  536000       536000    3326.7443    2746.6275    1783.7867    962.84076    254.53998    1553.0969    25611.853   0.63308659 
  537000       537000    3074.3947    2738.5826    1769.0491    969.53342    252.43697    899.04109    25611.853   0.63308659 
  538000       538000    2884.3889    2692.8639    1730.1532    962.71076    246.88666    512.75353    25611.853   0.63308659 
  539000       539000    2787.2288    2756.5162    1771.8527    984.66351    252.83703    82.224148    25611.853   0.63308659 
  540000       540000    2682.5833    2741.1224    1717.9729    1023.1495    245.14858   -156.72168    25611.853   0.63308659 
  541000       541000    2740.9998    2765.5722    1789.5256    976.04664    255.35889   -65.785561    25611.853   0.63308659 
  542000       542000    1997.2896    2726.0522     1765.484    960.56818    251.92824   -1951.0535    25611.853   0.63308659 
  543000       543000    3026.6792    2800.1304    1797.1824     1002.948    256.45149    606.51951    25611.853   0.63308659 
  544000       544000    3275.5117     2704.998    1733.6197     971.3783    247.38132    1527.3872    25611.853   0.63308659 
  545000       545000    3208.4747    2770.0662    1757.6342     1012.432    250.80811    1173.7133    25611.853   0.63308659 
  546000       546000    2290.2037    2781.9734    1806.4068    975.56665    257.76777   -1316.5727    25611.853   0.63308659 
  547000       547000    2956.2024    2715.1501    1751.8134    963.33665     249.9775    645.34863    25611.853   0.63308659 
  548000       548000    3124.7092    2742.2085    1751.5005    990.70798    249.93284    1024.0364    25611.853   0.63308659 
  549000       549000    2820.5361    2731.9791    1772.6961    959.28297    252.95738    237.08605    25611.853   0.63308659 
  550000       550000    2818.4553    2722.2176    1734.7724     987.4452    247.54581    257.64884    25611.853   0.63308659 
  551000       551000    2927.5462     2858.697    1797.7565    1060.9405    256.53341    184.32404    25611.853   0.63308659 
  552000       552000    2429.9074    2694.5843    1745.6586    948.92568    249.09923   -708.59657    25611.853   0.63308659 
  553000       553000    3265.0829    2749.0753    1762.9277    986.14758    251.56346     1381.463    25611.853   0.63308659 
  554000       554000    3097.9572    2641.0501    1708.6307     932.4194    243.81548    1223.2382    25611.853   0.63308659 
  555000       555000    2566.7132    2730.0967    1732.5924     997.5043    247.23473   -437.41267    25611.853   0.63308659 
  556000       556000    2906.0152    2774.8487    1779.5676    995.28105    253.93792    351.16091    25611.853   0.63308659 
  557000       557000    3476.5009    2763.2917    1754.6863    1008.6054    250.38745    1909.4137    25611.853   0.63308659 
  558000       558000     2612.605    2752.7345    1768.9263    983.80825    252.41944   -375.15664    25611.853   0.63308659 
  559000       559000    1853.2237     2708.123    1705.2111    1002.9119    243.32752   -2288.7485    25611.853   0.63308659 
  560000       560000    2517.6214    2757.7152    1741.6942     1016.021    248.53352   -642.78229    25611.853   0.63308659 
  561000       561000    2230.5087    2756.4733    1766.5259    989.94734    252.07692   -1408.1198    25611.853   0.63308659 
  562000       562000    2553.5817    2700.3599    1732.5725    967.78746    247.23189   -392.95676    25611.853   0.63308659 
  563000       563000    2672.8036    2699.7442    1740.7783    958.96582    248.40283   -72.125717    25611.853   0.63308659 
  564000       564000    3307.6681    2729.8261    1757.3989    972.42716    250.77453    1547.0068    25611.853   0.63308659 
  565000       565000    2959.3546    2718.9638    1751.1686    967.79524    249.88549    643.57749    25611.853   0.63308659 
  566000       566000    3020.4254    2793.9049    1787.7418    1006.1631    255.10435    606.44389    25611.853   0.63308659 
  567000       567000    2483.2629    2725.4679    1770.6238    954.84403    252.66168   -648.43464    25611.853   0.63308659 
  568000       568000    3137.5192    2694.1364    1689.2112    1004.9252    241.04439    1187.0306    25611.853   0.63308659 
  569000       569000    3312.3561    2755.6856    1726.0803    1029.6053    246.30548    1490.3262    25611.853   0.63308659 
  570000       570000    2428.1904    2785.5295    1788.5032    997.02623      255.213   -956.67325    25611.853   0.63308659 
  571000       571000    2216.6125    2761.7867    1776.0438     985.7429    253.43509   -1459.5479    25611.853   0.63308659 
  572000       572000    2434.0755    2726.4524    1732.2348    994.21756    247.18371   -782.75551    25611.853   0.63308659 
  573000       573000    2401.9658    2737.2472    1778.3797    958.86752    253.76841   -897.62001    25611.853   0.63308659 
  574000       574000    2658.0364    2721.0584    1717.5133    1003.5451    245.08299    -168.7233    25611.853   0.63308659 
  575000       575000    2970.1709    2722.8738    1737.6357    985.23815    247.95438    662.06741    25611.853   0.63308659 
  576000       576000     3138.448    2777.0479    1762.4465    1014.6014     251.4948    967.54543    25611.853   0.63308659 
  577000       577000     2779.538    2751.6405    1801.6968    949.94364    257.09568      74.6875    25611.853   0.63308659 
  578000       578000    2951.9955    2806.0432    1780.6335    1025.4097    254.09002    390.74554    25611.853   0.63308659 
  579000       579000     2681.272    2718.5321    1737.7742    980.75788    247.97416   -99.753345    25611.853   0.63308659 
  580000       580000    2916.0301    2778.4292    1778.6946    999.73465    253.81334    368.38689    25611.853   0.63308659 
  581000       581000    2846.2863    2744.4925    1730.2596    1014.2329    246.90185      272.524    25611.853   0.63308659 
  582000       582000    2942.5728    2715.1103    1752.9428    962.16753    250.13866     608.9658    25611.853   0.63308659 
  583000       583000    2691.7935    2753.0198     1746.678    1006.3418    249.24469   -163.91589    25611.853   0.63308659 
  584000       584000    3251.6721    2746.6947    1726.1814    1020.5133     246.3199    1351.9326    25611.853   0.63308659 
  585000       585000    2895.8642    2770.1497     1740.157    1029.9927    248.31417    336.56448    25611.853   0.63308659 
  586000       586000    2845.4575    2733.2457    1717.1452    1016.1005    245.03047    300.41511    25611.853   0.63308659 
  587000       587000    2303.1092    2683.1655    1699.7069    983.45863    242.54208   -1017.4921    25611.853   0.63308659 
  588000       588000    3153.3382    2774.9499     1759.462     1015.488    251.06892    1013.0265    25611.853   0.63308659 
  589000       589000    2363.0259    2743.9269    1757.0805    986.84638    250.72909   -1019.7536    25611.853   0.63308659 
  590000       590000    2355.0358     2641.965    1706.4896    935.47543    243.50995    -768.1708    25611.853   0.63308659 
  591000       591000    2866.8083    2764.2282    1756.4372     1007.791     250.6373     274.6289    25611.853   0.63308659 
  592000       592000     2864.026    2713.7797    1730.6242    983.15547    246.95387    402.24177    25611.853   0.63308659 
  593000       593000    2412.4647    2683.1702    1700.9688    982.20144    242.72215   -724.73672    25611.853   0.63308659 
  594000       594000     3042.241    2789.4318    1791.5162    997.91558    255.64294    676.82457    25611.853   0.63308659 
  595000       595000    3063.5136    2701.0219    1734.6549    966.36703    247.52903     970.4678    25611.853   0.63308659 
  596000       596000    2825.2639    2796.7463    1778.5748    1018.1715    253.79625    76.347918    25611.853   0.63308659 
  597000       597000    3277.5708    2739.9689    1755.8752    984.09367    250.55711    1439.2753    25611.853   0.63308659 
  598000       598000    2318.3929    2729.8403     1739.554    990.28628    248.22812   -1101.5328    25611.853   0.63308659 
  599000       599000    2930.6283    2811.9046    1755.6339    1056.2707    250.52266    317.84872    25611.853   0.63308659 
  600000       600000    2841.3786    2776.8141    1747.6515    1029.1626    249.38361    172.85301    25611.853   0.63308659 
  601000       601000    2532.0386    2725.7464    1770.4027    955.34364    252.63013   -518.59732    25611.853   0.63308659 
  602000       602000    3038.6268    2734.7053    1746.6739    988.03137    249.24411    813.66284    25611.853   0.63308659 
  603000       603000    3268.6023    2709.1291    1775.8685    933.26064    253.41007    1497.8295    25611.853   0.63308659 
  604000       604000    2705.9406    2805.7109    1764.1833    1041.5276    251.74264   -267.10651    25611.853   0.63308659 
  605000       605000     2573.187    2739.6265    1754.3492     985.2773    250.33935   -445.59422    25611.853   0.63308659 
  606000       606000    2942.5935    2685.9458    1722.0907     963.8551    245.73617    687.10079    25611.853   0.63308659 
[...]
  854000       854000     2182.229    2761.1994    1778.4558    982.74363    253.77927    -1550.028    25611.853   0.63308659 
  855000       855000    2602.4345    2731.3936    1737.6531    993.74051    247.95687   -345.25131    25611.853   0.63308659 
  856000       856000    2423.5442    2757.2132     1780.646    976.56726     254.0918   -893.30346    25611.853   0.63308659 
  857000       857000    2812.5213    2743.6068    1749.4878      994.119    249.64564    184.49894    25611.853   0.63308659 
  858000       858000    2997.3661    2820.4476    1808.2703    1012.1773    258.03369    473.64871    25611.853   0.63308659 
  859000       859000    2358.7901    2720.5652    1759.4652    961.09999    251.06939   -968.54941    25611.853   0.63308659 
  860000       860000    3062.3177    2774.5253    1801.9981    972.52724    257.13867    770.48189    25611.853   0.63308659 
  861000       861000    2923.8107    2715.7704    1729.1539     986.6165    246.74407    556.96833    25611.853   0.63308659 
  862000       862000    2708.0212    2763.5582    1745.6801    1017.8781    249.10229   -148.68431    25611.853   0.63308659 
  863000       863000    2463.4144    2645.9181    1682.6636    963.25444    240.11007   -488.60137    25611.853   0.63308659 
  864000       864000    3104.4087     2732.848    1740.3462    992.50189    248.34116    994.74738    25611.853   0.63308659 
  865000       865000    2717.7826    2775.4915    1793.4623    982.02927    255.92064   -154.49916    25611.853   0.63308659 
  866000       866000    2466.2784     2774.906    1770.9643    1003.9416    252.71026   -826.26192    25611.853   0.63308659 
  867000       867000    2446.0365    2732.6431    1745.5531    987.09004    249.08417   -767.30741    25611.853   0.63308659 
  868000       868000    2849.4049    2701.5072    1751.0522      950.455    249.86887     395.9538    25611.853   0.63308659 
  869000       869000    2444.2952    2733.9899    1765.6445    968.34534    251.95115    -775.5746    25611.853   0.63308659 
  870000       870000    3119.4948    2784.5155    1785.6095    998.90595    254.80009    896.81124    25611.853   0.63308659 
  871000       871000    1965.7255    2680.8906    1704.4044    976.48619     243.2124     -1914.65    25611.853   0.63308659 
  872000       872000    2063.1939    2762.0194    1783.1383    978.88108    254.44745   -1870.9057    25611.853   0.63308659 
  873000       873000    2321.7847    2656.4143    1718.0534     938.3609    245.16007   -895.87528    25611.853   0.63308659 
  874000       874000     2299.236    2707.1954    1696.5133    1010.6821    242.08637   -1092.1946    25611.853   0.63308659 
  875000       875000    2992.0847    2743.9614     1745.727    998.23435    249.10899     664.2792    25611.853   0.63308659 
  876000       876000     2543.062    2761.9738    1725.0338      1036.94    246.15615   -586.07393    25611.853   0.63308659 
  877000       877000    2555.4325    2745.6386    1786.0331    959.60553    254.86052   -509.22242    25611.853   0.63308659 
  878000       878000    3168.1663    2773.1476    1791.7357    981.41194    255.67426    1057.5495    25611.853   0.63308659 
  879000       879000    2799.8405    2738.7695    1727.1908    1011.5787    246.46394    163.50013    25611.853   0.63308659 
  880000       880000    2123.8279    2712.8372    1707.8462     1004.991    243.70354   -1576.9042    25611.853   0.63308659 
  881000       881000    2165.7037    2756.3068    1755.8191    1000.4877    250.54909   -1581.1709    25611.853   0.63308659 
  882000       882000    2511.3536    2743.0407    1752.6171    990.42353    250.09219    -620.2758    25611.853   0.63308659 
  883000       883000    2911.8941    2683.2102    1743.8751    939.33511    248.84472    612.23573    25611.853   0.63308659 
  884000       884000      2576.17    2712.1935    1716.4303    995.76324    244.92845   -364.16401    25611.853   0.63308659 
  885000       885000    2584.3382    2781.5582    1778.8989    1002.6594     253.8425   -528.00035    25611.853   0.63308659 
  886000       886000    2871.7646    2832.8023    1816.1378    1016.6645    259.15635    104.31056    25611.853   0.63308659 
  887000       887000    2161.7861    2723.3978    1724.7699    998.62793    246.11848   -1503.5548    25611.853   0.63308659 
  888000       888000    3697.3158    2737.1889    1754.2493    982.93952     250.3251    2570.4654    25611.853   0.63308659 
  889000       889000    2840.3215    2688.4962    1714.3887    974.10756    244.63712    406.46884    25611.853   0.63308659 
  890000       890000    2860.7058    2673.9842    1694.5895    979.39474    241.81185    499.89351    25611.853   0.63308659 
  891000       891000    3029.9309    2734.2432    1720.3225    1013.9207    245.48386    791.61928    25611.853   0.63308659 
  892000       892000    3270.1891      2779.46    1773.3036    1006.1564    253.04407    1313.7868    25611.853   0.63308659 
  893000       893000    2710.5986    2736.5946    1777.5618     959.0328    253.65171   -69.597064    25611.853   0.63308659 
  894000       894000    1734.8133    2668.4799    1709.1769    959.30292    243.89343   -2499.6253    25611.853   0.63308659 
  895000       895000     2547.619    2735.1827    1756.3773    978.80535    250.62875   -502.14823    25611.853   0.63308659 
  896000       896000    2800.2698    2855.2477    1807.7847     1047.463     257.9644   -147.18767    25611.853   0.63308659 
  897000       897000    2467.9773    2701.6129     1759.929    941.68394    251.13556   -625.49256    25611.853   0.63308659 
  898000       898000     2668.922    2766.2084    1775.0022    991.20624    253.28645    -260.4566    25611.853   0.63308659 
  899000       899000    2473.0967    2651.4244    1708.1219    943.30242    243.74288   -477.42131    25611.853   0.63308659 
  900000       900000    2982.2646    2753.6811    1766.9648    986.71625    252.13955    611.96719    25611.853   0.63308659 
  901000       901000    2851.0128    2733.0053    1762.0175    970.98785    251.43358     315.9314    25611.853   0.63308659 
  902000       902000    2944.0583    2760.2787    1766.1567    994.12194    252.02424    492.01752    25611.853   0.63308659 
  903000       903000    2311.6178    2794.2464    1753.7215    1040.5248    250.24978   -1292.0999    25611.853   0.63308659 
  904000       904000    2306.4781     2790.654    1790.3506    1000.3034    255.47662   -1296.2424    25611.853   0.63308659 
  905000       905000    2191.8807    2750.0946     1768.752    981.34264    252.39457   -1494.4582    25611.853   0.63308659 
  906000       906000    2681.6901     2749.855    1780.9022     968.9528    254.12836    -182.4921    25611.853   0.63308659 
  907000       907000    2838.8658     2757.934    1752.7023    1005.2317    250.10434    216.67193    25611.853   0.63308659 
  908000       908000    2634.2863    2686.2055    1715.8401    970.36546    244.84423   -138.99886    25611.853   0.63308659 
  909000       909000    3132.8189    2751.6419    1777.3101    974.33175    253.61578    1020.4926    25611.853   0.63308659 
  910000       910000    2967.5365    2810.6028    1798.2952    1012.3076    256.61029     420.1451    25611.853   0.63308659 
  911000       911000    2442.4177    2739.3545    1706.3425    1033.0119    243.48897   -794.96323    25611.853   0.63308659 
  912000       912000    2769.3309    2796.7615    1763.5877    1033.1738    251.65764   -73.437519    25611.853   0.63308659 
  913000       913000    1950.7373    2714.2919    1761.1712    953.12077    251.31281   -2044.1993    25611.853   0.63308659 
  914000       914000    2698.0189    2742.7768    1732.2196    1010.5571    247.18153   -119.82626    25611.853   0.63308659 
  915000       915000    2879.1852    2783.2888     1794.935     988.3538     256.1308    256.73514    25611.853   0.63308659 
  916000       916000    2873.6237    2747.2893    1789.5344    957.75489    255.36014    338.22431    25611.853   0.63308659 
  917000       917000     2679.989    2695.0041    1697.7644    997.23974    242.26489    -40.19854    25611.853   0.63308659 
  918000       918000    2265.1583    2736.2646    1727.5857    1008.6789    246.52029   -1261.2526    25611.853   0.63308659 
  919000       919000    2858.5261    2715.6742    1722.8503    992.82387    245.84456    382.44526    25611.853   0.63308659 
  920000       920000    2750.1732    2743.9823    1731.4141    1012.5682    247.06659    16.574231    25611.853   0.63308659 
  921000       921000    2444.9931    2682.0044    1724.5601    957.44429    246.08855   -634.53001    25611.853   0.63308659 
  922000       922000    3420.9891    2743.4427    1750.5789    992.86375    249.80134    1813.9368    25611.853   0.63308659 
  923000       923000    2842.7803     2861.554    1814.9378    1046.6162    258.98512   -50.261251    25611.853   0.63308659 
  924000       924000    2799.1708     2692.362    1701.3342    991.02786    242.77429    285.94989    25611.853   0.63308659 
  925000       925000    2964.5817    2758.0862    1727.3583     1030.728    246.48783    552.83265    25611.853   0.63308659 
  926000       926000    3210.2869    2799.9432    1733.2408    1066.7024    247.32725    1098.5778    25611.853   0.63308659 
  927000       927000    2780.1249    2761.6294    1738.8434     1022.786    248.12672     49.51661    25611.853   0.63308659 
  928000       928000      2106.11    2696.3913     1731.887    964.50434    247.13407   -1580.3096    25611.853   0.63308659 
  929000       929000    2635.1508    2755.5164    1761.2133     994.3031    251.31883    -322.2445    25611.853   0.63308659 
  930000       930000    2914.0318    2795.5697    1723.1431    1072.4266    245.88635    317.14847    25611.853   0.63308659 
  931000       931000    2313.7118    2731.4273    1771.4107     960.0166    252.77396    -1118.314    25611.853   0.63308659 
  932000       932000    2813.1165    2698.7688    1703.6771    995.09176    243.10861    306.13316    25611.853   0.63308659 
  933000       933000    2555.2379     2701.363    1719.8944    981.46856    245.42277   -391.20822    25611.853   0.63308659 
  934000       934000    3182.3278    2720.7172    1743.4031    977.31408    248.77738    1235.8304    25611.853   0.63308659 
  935000       935000    3067.1044    2757.4491    1728.4074    1029.0418    246.63754    829.01341    25611.853   0.63308659 
  936000       936000    2453.5294     2787.788    1779.6803    1008.1078      253.954   -894.88207    25611.853   0.63308659 
  937000       937000    2967.4684    2769.4289    1769.4662    999.96265    252.49649    530.19414    25611.853   0.63308659 
  938000       938000    3221.1535    2707.9587    1744.0559    963.90279    248.87053    1373.9325    25611.853   0.63308659 
  939000       939000    3265.2539    2743.5344    1763.1497    980.38472    251.59514    1396.7549    25611.853   0.63308659 
  940000       940000    2740.5015     2792.116    1800.5673    991.54871     256.9345   -138.18303    25611.853   0.63308659 
  941000       941000    2949.8038    2759.5433    1752.2242    1007.3191    250.03611    509.36795    25611.853   0.63308659 
  942000       942000    3148.2125    2731.7632    1790.3754    941.38774    255.48016    1114.9241    25611.853   0.63308659 
  943000       943000    2954.4966    2731.2859    1766.9902     964.2957    252.14317      597.583    25611.853   0.63308659 
  944000       944000    2778.0493    2748.7638    1719.9189    1028.8449    245.42627    78.403316    25611.853   0.63308659 
  945000       945000    2408.1854    2713.9264    1758.7768    955.14965    250.97115   -818.53423    25611.853   0.63308659 
  946000       946000    2796.4128    2688.0816    1702.5918    985.48981    242.95375    290.02586    25611.853   0.63308659 
  947000       947000    2616.2343    2731.5178    1746.8544    984.66343    249.26986   -308.63852    25611.853   0.63308659 
  948000       948000    3102.1754    2766.3825    1752.0964     1014.286    250.01788    898.98942    25611.853   0.63308659 
  949000       949000    2612.9226    2743.5863    1753.4574    990.12895    250.21209    -349.8148    25611.853   0.63308659 
  950000       950000    2991.1577    2787.7256    1772.2546     1015.471    252.89438    544.63132    25611.853   0.63308659 
  951000       951000    2594.3814    2679.7152    1685.8794    993.83587    240.56895   -228.45707    25611.853   0.63308659 
  952000       952000     3125.874    2731.2231    1725.7455    1005.4776    246.25769     1056.565    25611.853   0.63308659 
  953000       953000     2953.705    2734.9967    1735.5153    999.48144    247.65181    585.52883    25611.853   0.63308659 
  954000       954000     1929.936    2684.4408    1716.8533    967.58744    244.98882   -2019.9708    25611.853   0.63308659 
  955000       955000     2479.398    2789.1544    1809.0315    980.12292    258.14231   -829.28436    25611.853   0.63308659 
  956000       956000    2497.1953    2725.7923    1744.0423    981.75001    248.86859   -612.00305    25611.853   0.63308659 
  957000       957000    3536.3938    2679.5764    1755.9113    923.66512    250.56226    2293.8834    25611.853   0.63308659 
  958000       958000    3702.6331    2766.5914    1786.6275    979.96395    254.94534     2505.984    25611.853   0.63308659 
  959000       959000    2448.4163    2685.4546    1682.1693    1003.2854    240.03953   -634.60238    25611.853   0.63308659 
  960000       960000    2644.5581    2742.1823    1797.3613    944.82103    256.47702     -261.361    25611.853   0.63308659 
  961000       961000    3043.0918    2773.8653    1786.5137    987.35158    254.92911    720.77689    25611.853   0.63308659 
  962000       962000    2875.2859     2753.257    1764.3423    988.91465    251.76533    326.69755    25611.853   0.63308659 
  963000       963000    2942.1272    2734.7201     1738.038    996.68219    248.01179      555.273    25611.853   0.63308659 
  964000       964000     2489.612     2739.399    1729.0117    1010.3873    246.72378   -668.73328    25611.853   0.63308659 
  965000       965000    2533.6446    2711.9798    1708.1972    1003.7826    243.75363   -477.44158    25611.853   0.63308659 
  966000       966000    2352.7029    2767.4046    1775.0488    992.35578    253.29311   -1110.2452    25611.853   0.63308659 
  967000       967000    2520.7107    2655.4111    1718.9186    936.49251    245.28352   -360.62167    25611.853   0.63308659 
  968000       968000    2808.2419    2706.9246    1745.7793    961.14535    249.11645    271.24802    25611.853   0.63308659 
  969000       969000    2571.2753    2768.6818    1789.6905    978.99131    255.38242   -528.49951    25611.853   0.63308659 
  970000       970000    2864.3147    2749.6335    1757.6209    992.01255    250.80621    307.02616    25611.853   0.63308659 
  971000       971000    2839.0617     2713.335    1737.4441     975.8909    247.92705     336.5974    25611.853   0.63308659 
  972000       972000     2839.997    2771.8727     1780.039    991.83363    254.00519    182.38339    25611.853   0.63308659 
  973000       973000    2939.8135    2744.8485    1727.5034    1017.3452    246.50854    521.96283    25611.853   0.63308659 
  974000       974000    3059.5796    2788.0012    1773.6097    1014.3914    253.08776    727.07374    25611.853   0.63308659 
  975000       975000    2551.9906    2698.4725    1700.5078    997.96471    242.65637   -392.16348    25611.853   0.63308659 
  976000       976000    3000.4482    2767.9531    1763.4876    1004.4655    251.64336     622.4393    25611.853   0.63308659 
  977000       977000    2538.3805    2741.8982    1712.9344    1028.9639     244.4296   -544.86046    25611.853   0.63308659 
  978000       978000    2816.7227    2765.7644    1782.4262    983.33823    254.34583     136.4262    25611.853   0.63308659 
  979000       979000    2512.9735    2720.2768    1742.1669    978.10982    248.60098   -554.99523    25611.853   0.63308659 
  980000       980000    2799.6574    2842.5628    1796.0778    1046.4851    256.29386   -114.86709    25611.853   0.63308659 
  981000       981000    2806.1716    2760.6819    1786.6194    974.06251    254.94419    121.78562    25611.853   0.63308659 
  982000       982000    2454.5853    2753.7845    1796.9396    956.84487    256.41685   -801.02022    25611.853   0.63308659 
  983000       983000    2769.4174    2758.0307    1758.6446     999.3861    250.95228     30.48464    25611.853   0.63308659 
  984000       984000    2396.7956    2688.1642    1765.6109    922.55327    251.94636   -780.05626    25611.853   0.63308659 
  985000       985000    2643.0157    2781.8175    1751.2065    1030.6111    249.89089   -371.60215    25611.853   0.63308659 
  986000       986000    2835.0896    2761.2558    1772.2366    989.01916    252.89181    197.66913    25611.853   0.63308659 
  987000       987000    2825.3425    2717.6279    1751.1431    966.48482    249.88185    288.37485    25611.853   0.63308659 
  988000       988000    3143.0657    2778.5198    1761.3558     1017.164    251.33916    975.96749    25611.853   0.63308659 
  989000       989000     2629.019    2736.5658    1729.2226    1007.3432    246.75388   -287.92599    25611.853   0.63308659 
  990000       990000    2531.1738    2703.5844    1731.0691    972.51534    247.01735   -461.58008    25611.853   0.63308659 
  991000       991000    2826.0653    2800.9104     1732.997    1067.9134    247.29246    67.345077    25611.853   0.63308659 
  992000       992000    3198.6322    2746.6266    1775.2364    971.39026    253.31987    1210.1156    25611.853   0.63308659 
  993000       993000    2978.7808    2704.3511    1732.2185    972.13259    247.18137    734.70712    25611.853   0.63308659 
  994000       994000    1992.5366    2732.5498     1729.909    1002.6407    246.85182   -1981.1737    25611.853   0.63308659 
  995000       995000    2622.3367    2775.9496    1784.9838    990.96579    254.71079    -411.2546    25611.853   0.63308659 
  996000       996000    3280.9007    2794.7333    1828.4581    966.27526    260.91442    1301.5741    25611.853   0.63308659 
  997000       997000    3174.0848    2786.7152    1764.5647    1022.1505    251.79706    1037.0713    25611.853   0.63308659 
  998000       998000    2277.2071    2696.2625    1729.9947     966.2678    246.86405   -1121.9011    25611.853   0.63308659 
  999000       999000    2545.0992    2692.8329    1707.5547    985.27819    243.66193   -395.51462    25611.853   0.63308659 
 1000000      1000000     2396.606    2714.4804    1746.1398    968.34065    249.16789   -851.01788    25611.853   0.63308659 
Loop time of 1967.01 on 24 procs for 1000000 steps with 2352 atoms

Performance: 43.924 ns/day, 0.546 hours/ns, 508.385 timesteps/s
93.9% CPU use with 24 MPI tasks x 1 OpenMP threads

MPI task timing breakdown:
Section |  min time  |  avg time  |  max time  |%varavg| %total
---------------------------------------------------------------
Pair    | 1015.3     | 1042.8     | 1067.7     |  39.8 | 53.01
Bond    | 58.026     | 59.179     | 60.52      |   8.0 |  3.01
Kspace  | 315.57     | 343.17     | 373.32     |  73.7 | 17.45
Neigh   | 61.118     | 61.317     | 61.576     |   1.7 |  3.12
Comm    | 258.22     | 261.57     | 266.7      |  12.3 | 13.30
Output  | 0.03677    | 5.9848     | 142.79     |1166.0 |  0.30
Modify  | 13.008     | 15.769     | 17.368     |  39.7 |  0.80
Other   |            | 177.3      |            |       |  9.01

Nlocal:    98 ave 113 max 85 min
Histogram: 3 1 7 0 0 5 1 4 1 2
Nghost:    5176.58 ave 5262 max 5048 min
Histogram: 1 4 2 0 1 1 3 2 5 5
Neighs:    51677.9 ave 63475 max 44256 min
Histogram: 4 1 6 4 1 3 2 1 1 1

Total # of neighbors = 1240270
Ave neighs/atom = 527.326
Ave special neighs/atom = 9.14286
Neighbor list builds = 30316
Dangerous builds = 0

#write_data butane_afterr_nvt1.data
Total wall time: 0:32:47
