LAMMPS (3 Mar 2020)
  using 1 OpenMP thread(s) per MPI task
units           real
atom_style      full
boundary        p p p


pair_style      lj/cut/coul/long 12.0
pair_modify     tail yes mix geometric
bond_style      harmonic
angle_style     harmonic
dihedral_style  opls

kspace_style    ewald 1.0e-5
#special_bonds   lj/coul 0.0 0.0 0.5

neighbor        2.0 bin
neigh_modify    every 1 delay 0 check yes

read_data       butane_afterr_nvt1.data
  orthogonal box = (0 0 0) to (28.0629 28.0629 28.0629)
  2 by 3 by 4 MPI processor grid
  reading atoms ...
  2352 atoms
  reading velocities ...
  2352 velocities
  scanning bonds ...
  1 = max bonds/atom
  scanning angles ...
  6 = max angles/atom
  scanning dihedrals ...
  11 = max dihedrals/atom
  reading bonds ...
  2184 bonds
  reading angles ...
  4032 angles
  reading dihedrals ...
  4536 dihedrals
  4 = max # of 1-2 neighbors
  6 = max # of 1-3 neighbors
  9 = max # of 1-4 neighbors
  13 = max # of special neighbors
  special bonds CPU = 0.000993185 secs
  read_data CPU = 0.0414414 secs

group           mobile union all
2352 atoms in group mobile

#minimize 1.0e-8 1.0e-10 400000 400000
#write_data buate_after_min.data

#fix DEF all deform 1 x final 0.0 28.0629 y final 0.0 28.0629 z final 0.0 28.0629 units box
#run 1
#unfix DEF

thermo_style    custom step time enthalpy etotal ke pe temp press vol density
#thermo_modify   line multi
thermo          1000
thermo_modify   flush yes
timestep 1.0


## Equil NPT ##
#fix      NPT  all nvt temp 272 272 100 iso 1 1 1000
#restart 1000000 liqbut1.restart

#fix      NPT  all npt temp 160 160 50 iso 1 1 500
#dump myDump all atom 2000 butane_npt.lammpstrj

#run 5000000
#write_data ethanol_after_npt.data



fix 1 all nvt temp 160 160 100 # iso 1.0 1.0 1000.0
#dump            DUMPxyz all xyz 1 but1_clms_20ps.xyz
#dump            DUMP all custom 1000 mol.lammpstrj id type x y z fx fy fz mol

run 1000000
Ewald initialization ...
  using 12-bit tables for long-range coulomb (src/kspace.cpp:332)
  G vector (1/distance) = 0.189317
  estimated absolute RMS force accuracy = 0.00393399
  estimated relative force accuracy = 1.18471e-05
  KSpace vectors: actual max1d max3d = 128 4 364
                  kxmax kymax kzmax  = 4 4 4
Neighbor list info ...
  update every 1 steps, delay 0 steps, check yes
  max neighbors/atom: 2000, page size: 100000
  master list distance cutoff = 14
  ghost atom cutoff = 14
  binsize = 7, bins = 5 5 5
  1 neighbor lists, perpetual/occasional/extra = 1 0 0
  (1) pair lj/cut/coul/long, perpetual
      attributes: half, newton on
      pair build: half/bin/newton
      stencil: half/bin/3d/newton
      bin: standard
Per MPI rank memory allocation (min/avg/max) = 19.29 | 19.29 | 19.29 Mbytes
Step Time Enthalpy TotEng KinEng PotEng Temp Press Volume Density 
       0            0     1290.569    1356.4233    1145.8046    210.61872    163.50221   -204.31983    22100.273   0.73367965 
    1000         1000    1091.5816    1312.1301    1148.1408    163.98937    163.83557   -684.27483    22100.273   0.73367965 
    2000         2000    1319.4964    1322.3859    1099.4924    222.89349    156.89363   -8.9651845    22100.273   0.73367965 
    3000         3000    813.21494    1295.8055    1114.3389    181.46665    159.01217   -1497.2879    22100.273   0.73367965 
    4000         4000    1403.9607    1328.9514    1112.8881     216.0633    158.80514    232.72424    22100.273   0.73367965 
    5000         5000    1391.7277    1291.2152    1126.5258    164.68937     160.7512    311.85065    22100.273   0.73367965 
    6000         6000    1307.6284    1342.9359    1124.1847    218.75121    160.41712   -109.54519    22100.273   0.73367965 
    7000         7000    966.42449    1283.8331    1109.5845    174.24862    158.33373   -984.79347    22100.273   0.73367965 
    8000         8000    1439.4541    1316.5992    1114.8121    201.78709    159.07969    381.17023    22100.273   0.73367965 
    9000         9000    1967.0512    1362.1272    1147.2514     214.8758    163.70867      1876.84    22100.273   0.73367965 
   10000        10000    1758.2745    1291.4559    1131.9826    159.47338    161.52985    1448.3536    22100.273   0.73367965 
   11000        11000    1418.9167    1349.9246    1147.1461    202.77848    163.69365    214.05511    22100.273   0.73367965 
   12000        12000    911.82269    1309.6682    1123.1776    186.49058    160.27343   -1234.3575    22100.273   0.73367965 
   13000        13000    1625.8774    1304.9979    1112.6109    192.38694    158.76559    995.56239    22100.273   0.73367965 
   14000        14000    1320.8717    1307.7005    1114.3915    193.30897    159.01968    40.865042    22100.273   0.73367965 
   15000        15000    1194.5622    1339.8784    1139.2454    200.63302    162.56623   -450.85875    22100.273   0.73367965 
   16000        16000     1263.512     1283.993    1099.2625    184.73056    156.86081   -63.544437    22100.273   0.73367965 
   17000        17000    1166.3125    1333.9402    1109.8486    224.09155    158.37142   -520.08236    22100.273   0.73367965 
   18000        18000      1380.45    1321.2671    1106.0768    215.19029    157.83319    183.62128    22100.273   0.73367965 
   19000        19000    1352.0653    1295.9408    1113.3239    182.61694    158.86732    174.13213    22100.273   0.73367965 
   20000        20000    1440.4886    1331.8824    1151.3243    180.55811    164.28985    336.96228    22100.273   0.73367965 
   21000        21000    1230.2781    1320.9273    1127.9025    193.02484    160.94764   -281.24872    22100.273   0.73367965 
   22000        22000    1544.1803    1327.8648    1104.6774    223.18734    157.63351    671.14163    22100.273   0.73367965 
   23000        23000    1691.8648    1354.0706     1139.043    215.02759    162.53735    1048.0421    22100.273   0.73367965 
   24000        24000    1121.4431    1293.3199      1083.31     210.0099    154.58446   -533.26578    22100.273   0.73367965 
   25000        25000     232.2686    1322.0244    1143.3231    178.70126    163.14811   -3381.0816    22100.273   0.73367965 
   26000        26000    859.88158    1289.2906    1112.3514    176.93924    158.72856   -1332.2866    22100.273   0.73367965 
   27000        27000    1408.5645    1326.3782    1142.2469    184.13137    162.99454    254.99132    22100.273   0.73367965 
   28000        28000    1251.6275    1285.0286    1110.7647    174.26393    158.50214   -103.63043    22100.273   0.73367965 
   29000        29000    1556.1282    1299.9437     1106.663    193.28062    157.91685    794.83927    22100.273   0.73367965 
   30000        30000    1908.4645    1332.1891    1120.0858    212.10329    159.83224    1787.9549    22100.273   0.73367965 
   31000        31000     1352.169    1258.0979    1100.7259    157.37192    157.06965    291.86572    22100.273   0.73367965 
   32000        32000    1100.1106    1321.3729    1126.6989    194.67407    160.77589   -686.48961    22100.273   0.73367965 
   33000        33000    1357.4649    1312.9351    1112.5638    200.37126    158.75887    138.15846    22100.273   0.73367965 
   34000        34000    1212.0407    1297.6708    1135.1917     162.4791    161.98779   -265.67626    22100.273   0.73367965 
   35000        35000    1697.1796    1281.3124    1109.7649    171.54749    158.35948    1290.2716    22100.273   0.73367965 
   36000        36000    1299.9761    1287.6724    1114.6085    173.06389    159.05064    38.173555    22100.273   0.73367965 
   37000        37000    1730.5797    1381.2997    1150.5851    230.71458    164.18438    1083.6777    22100.273   0.73367965 
   38000        38000    1743.9746    1304.9151    1123.0379    181.87723    160.25348    1362.2282    22100.273   0.73367965 
   39000        39000    1149.9923    1275.6174    1096.7462    178.87124    156.50175   -389.76505    22100.273   0.73367965 
   40000        40000    1319.7559    1289.8248    1096.5838    193.24104    156.47858    92.864349    22100.273   0.73367965 
   41000        41000    1538.9142    1320.0283    1122.8872    197.14113    160.23198    679.11623    22100.273   0.73367965 
   42000        42000    1550.1018    1301.7945    1135.4131    166.38139    162.01938    770.39964    22100.273   0.73367965 
   43000        43000    1073.9986    1279.6815    1102.0085    177.67301    157.25266   -638.15257    22100.273   0.73367965 
   44000        44000     1555.623    1290.7131    1136.8367    153.87641    162.22252    821.91096    22100.273   0.73367965 
   45000        45000    1562.4032    1310.9523    1132.5573    178.39503    161.61186    780.15284    22100.273   0.73367965 
   46000        46000    1178.1016    1301.4321    1104.2132    197.21893    157.56726   -382.64579    22100.273   0.73367965 
   47000        47000    1487.9521    1294.0114    1085.4712    208.54022    154.89285    601.72135    22100.273   0.73367965 
   48000        48000    1794.0181    1298.1301    1132.1052     166.0249    161.54736    1538.5444    22100.273   0.73367965 
   49000        49000    1576.8646    1361.7812    1143.7646    218.01668    163.21111    667.31866    22100.273   0.73367965 
   50000        50000    1573.1949    1292.3573    1082.7547    209.60257    154.50522    871.32811    22100.273   0.73367965 
   51000        51000    1209.9658    1348.1498    1157.1385    191.01131    165.11952   -428.73061    22100.273   0.73367965 
   52000        52000    1321.7673    1334.7478    1157.4464    177.30142    165.16346    -40.27334    22100.273   0.73367965 
   53000        53000    1237.1913    1329.8958    1126.7853    203.11045    160.78823    -287.6253    22100.273   0.73367965 
   54000        54000    1155.0118    1304.2915    1116.6063    187.68518    159.33572   -463.15608    22100.273   0.73367965 
   55000        55000    1307.4253    1312.6027    1107.8657    204.73695    158.08847   -16.063347    22100.273   0.73367965 
   56000        56000    972.40571    1304.6073    1101.6388    202.96847    157.19991   -1030.6903    22100.273   0.73367965 
   57000        57000    1025.4538    1316.9043    1125.2365    191.66776    160.56722    -904.2557    22100.273   0.73367965 
   58000        58000    1134.9762    1297.5006    1121.0905    176.41007     159.9756   -504.24875    22100.273   0.73367965 
   59000        59000    1034.4865    1274.8697    1104.5507    170.31898    157.61543   -745.81416    22100.273   0.73367965 
   60000        60000    1192.5445    1325.8014    1104.9643    220.83705    157.67445   -413.44342    22100.273   0.73367965 
   61000        61000    1446.0107    1270.4523    1111.4555    158.99682    158.60072    544.68831    22100.273   0.73367965 
   62000        62000    1593.4746    1320.3932    1113.3181     207.0751    158.86651    847.26354    22100.273   0.73367965 
   63000        63000    1595.4314    1364.7174    1143.1621    221.55533    163.12513    715.81433    22100.273   0.73367965 
   64000        64000    879.93902    1297.0132     1098.781    198.23218    156.79211   -1294.0163    22100.273   0.73367965 
   65000        65000    762.79133    1277.1108    1127.2202    149.89059    160.85028   -1595.7299    22100.273   0.73367965 
   66000        66000    1371.8956    1315.0401    1116.5935    198.44656    159.33389    176.40016    22100.273   0.73367965 
   67000        67000    893.14402    1321.3473    1111.1894    210.15794    158.56274   -1328.5456    22100.273   0.73367965 
   68000        68000    1100.3649     1291.659    1096.7234    194.93562     156.4985   -593.51007    22100.273   0.73367965 
   69000        69000    1290.1086    1288.0733    1130.3713    157.70199    161.29994    6.3147563    22100.273   0.73367965 
   70000        70000    1168.5653    1354.6551    1135.0255    219.62963    161.96407   -577.36297    22100.273   0.73367965 
   71000        71000     1312.561    1276.1261    1103.8084     172.3177    157.50951    113.04311    22100.273   0.73367965 
   72000        72000    1607.2919    1335.0064    1120.9684    214.03795    159.95818    844.79451    22100.273   0.73367965 
   73000        73000    1321.7333    1296.5411    1116.1708    180.37024    159.27358    78.161572    22100.273   0.73367965 
   74000        74000     804.1965    1343.5395    1107.7384    235.80109     158.0703   -1673.3682    22100.273   0.73367965 
   75000        75000    1308.2634    1284.8637    1088.8424    196.02127    155.37392    72.599945    22100.273   0.73367965 
   76000        76000    1207.7187    1311.1176    1100.6337    210.48395    157.05648   -320.80604    22100.273   0.73367965 
   77000        77000    1298.4347    1305.7833     1133.757    172.02632    161.78306   -22.799806    22100.273   0.73367965 
   78000        78000    1255.9343    1260.5939     1115.888    144.70582    159.23322   -14.456875    22100.273   0.73367965 
   79000        79000    1567.8888    1315.9049    1108.0739    207.83096    158.11818    781.80644    22100.273   0.73367965 
   80000        80000    833.29065    1288.9403    1105.3237    183.61662    157.72573   -1413.7008    22100.273   0.73367965 
   81000        81000    1426.0166    1308.1418    1135.3998    172.74202    162.01748    365.71899    22100.273   0.73367965 
   82000        82000    1210.3064    1361.4297    1134.4295    227.00026    161.87902   -468.87603    22100.273   0.73367965 
   83000        83000    929.11048    1333.8992    1140.8232    193.07599    162.79138   -1255.8993    22100.273   0.73367965 
   84000        84000     1240.231    1290.5226    1120.7718    169.75083    159.93012   -156.03506    22100.273   0.73367965 
   85000        85000    1517.7519      1322.95    1126.9506    195.99938    160.81181    604.39337    22100.273   0.73367965 
   86000        86000    1622.4853     1313.924    1130.9979    182.92602    161.38936    957.34378    22100.273   0.73367965 
   87000        87000    1191.5215    1308.2296    1105.1377     203.0919    157.69919   -362.09907    22100.273   0.73367965 
   88000        88000    1205.8044    1282.0729     1098.737    183.33594    156.78583   -236.63096    22100.273   0.73367965 
   89000        89000    1170.9674    1310.3074    1098.7551    211.55223    156.78842   -432.31698    22100.273   0.73367965 
   90000        90000    1203.9678    1299.2718    1113.0617    186.21006    158.82992   -295.69048    22100.273   0.73367965 
   91000        91000    1523.4572    1295.6306    1123.6151    172.01545    160.33585     706.8562    22100.273   0.73367965 
   92000        92000     641.8112    1273.0222    1117.7907    155.23155    159.50472   -1958.3984    22100.273   0.73367965 
   93000        93000    729.73282     1282.146    1103.4049    178.74109    157.45193   -1713.9199    22100.273   0.73367965 
   94000        94000    922.02754     1367.263     1132.688    234.57508    161.63051   -1381.3898    22100.273   0.73367965 
   95000        95000    1266.6537    1284.7766    1127.6345    157.14211     160.9094   -56.228158    22100.273   0.73367965 
   96000        96000    1141.3396    1356.4803    1147.1108    209.36948     163.6886   -667.49662    22100.273   0.73367965 
   97000        97000    1271.9084    1330.0887    1145.3046     184.7841    163.43087   -180.51052    22100.273   0.73367965 
   98000        98000    1224.3636    1288.7002    1117.7588    170.94143    159.50018    -199.6111    22100.273   0.73367965 
   99000        99000    1344.8406    1284.2239    1098.0396    186.18434    156.68631    188.06968    22100.273   0.73367965 
  100000       100000    1718.6488    1356.4244    1128.9887    227.43567    161.10265    1123.8392    22100.273   0.73367965 
  101000       101000    1144.2497    1299.0332    1138.3087    160.72446    162.43257   -480.23201    22100.273   0.73367965 
  102000       102000    1585.5926    1297.4507     1112.425    185.02568    158.73906     893.9904    22100.273   0.73367965 
  103000       103000    1153.0192    1374.5843    1159.7687    214.81565    165.49484    -687.4292    22100.273   0.73367965 
  104000       104000    1101.0441     1313.874    1141.6639    172.21005    162.91135   -660.32684    22100.273   0.73367965 
  105000       105000    1241.8298    1312.1138    1115.1175    196.99629    159.12328   -218.06346    22100.273   0.73367965 
  106000       106000    1674.8104    1327.9141     1136.317    191.59709    162.14836    1076.2823    22100.273   0.73367965 
  107000       107000    1540.2625     1283.419    1101.0058    182.41321    157.10958    796.88384    22100.273   0.73367965 
  108000       108000    1327.8342    1316.9347    1123.0124    193.92224    160.24985    33.816901    22100.273   0.73367965 
  109000       109000    1117.2431    1347.9432    1143.1085    204.83475    163.11749   -715.77133    22100.273   0.73367965 
  110000       110000    1332.5842    1291.1181    1130.3427    160.77532    161.29586    128.65297    22100.273   0.73367965 
  111000       111000    1300.5979    1352.5857    1148.8292    203.75644    163.93382   -161.29766    22100.273   0.73367965 
  112000       112000    1590.9442    1320.1617    1145.1384    175.02327    163.40714    840.13132    22100.273   0.73367965 
  113000       113000    1461.0632     1256.067    1097.4912    158.57576    156.60806    636.02241    22100.273   0.73367965 
  114000       114000    1317.1185    1309.6873     1102.941     206.7463    157.38573     23.05624    22100.273   0.73367965 
  115000       115000    1087.7111    1296.3021    1107.6163    188.68582    158.05287   -647.17547    22100.273   0.73367965 
  116000       116000    862.81668    1317.5513    1117.0776    200.47364    159.40298   -1410.8618    22100.273   0.73367965 
  117000       117000    1671.6327    1366.3607     1149.233    217.12767    163.99143    947.13856    22100.273   0.73367965 
  118000       118000    1568.6375    1293.3408    1133.7667     159.5741    161.78445    854.13673    22100.273   0.73367965 
  119000       119000    1394.1698    1267.4559    1094.6579    172.79799    156.20376    393.14339    22100.273   0.73367965 
  120000       120000    848.48177    1322.2028    1154.6681    167.53469    164.76701   -1469.7692    22100.273   0.73367965 
  121000       121000    1461.8035    1280.3836    1082.2408    198.14285    154.43188    562.87435    22100.273   0.73367965 
  122000       122000    1178.9583    1309.4652    1104.2022    205.26301    157.56569   -404.91137    22100.273   0.73367965 
  123000       123000    1043.0563    1321.6721    1135.3586    186.31351     162.0116   -864.43461    22100.273   0.73367965 
  124000       124000    876.20218    1289.7717     1116.644    173.12776    159.34109   -1283.1429    22100.273   0.73367965 
  125000       125000    1477.1872    1356.2492    1127.9034    228.34577    160.94777    375.22307    22100.273   0.73367965 
  126000       126000    1221.0395    1302.7548    1135.5687    167.18617    162.04158   -253.53048    22100.273   0.73367965 
  127000       127000    979.36897    1292.7135    1115.3347    177.37888    159.15426   -972.18439    22100.273   0.73367965 
  128000       128000    1062.0096    1336.3251    1113.3344    222.99079    158.86882   -851.09258    22100.273   0.73367965 
  129000       129000    911.52597    1345.7658    1138.5796    207.18621    162.47122   -1347.2745    22100.273   0.73367965 
  130000       130000    1339.1872    1302.3124    1117.5591    184.75332    159.47168    114.40789    22100.273   0.73367965 
  131000       131000    1026.8061    1271.9306    1124.8027    147.12797    160.50531   -760.52446    22100.273   0.73367965 
  132000       132000    1065.2342    1323.2704    1122.8618    200.40862    160.22835   -800.58438    22100.273   0.73367965 
  133000       133000    1706.0041    1275.6482    1094.3291     181.3191    156.15684    1335.2243    22100.273   0.73367965 
  134000       134000    1570.7869    1311.8435    1136.1119    175.73163    162.11909    803.39898    22100.273   0.73367965 
  135000       135000    1443.1092    1292.1523    1107.2329    184.91942    157.99816     468.3597    22100.273   0.73367965 
  136000       136000    1481.1703    1373.1695    1141.5553    231.61429    162.89584    335.08382    22100.273   0.73367965 
  137000       137000    1395.6014    1317.1187    1115.5711     201.5476      159.188    243.50078    22100.273   0.73367965 
  138000       138000    1264.8086    1310.8187    1130.0035    180.81518    161.24745   -142.75101    22100.273   0.73367965 
  139000       139000    1582.4514    1244.8901    1091.8238    153.06632    155.79934    1047.3194    22100.273   0.73367965 
  140000       140000    1406.1297    1291.9965    1106.5872    185.40931    157.90603    354.11036    22100.273   0.73367965 
  141000       141000    1211.7596    1335.2749     1144.747    190.52796    163.35129   -383.21914    22100.273   0.73367965 
  142000       142000    870.48222    1355.4631    1178.5423    176.92081    168.17376    -1504.704    22100.273   0.73367965 
  143000       143000    970.17501    1332.9594    1130.3081    202.65128    161.29092   -1125.5766    22100.273   0.73367965 
  144000       144000    728.85887    1352.2055    1141.5275    210.67792    162.89189   -1933.9982    22100.273   0.73367965 
  145000       145000    1621.9408    1308.1964    1127.7774      180.419    160.92979    973.42507    22100.273   0.73367965 
  146000       146000    1315.6102    1265.1418     1115.953    149.18886    159.24249    156.58332    22100.273   0.73367965 
  147000       147000    774.98041    1304.0461    1098.0183    206.02785    156.68327   -1641.4819    22100.273   0.73367965 
  148000       148000    1309.1543    1333.8374    1135.7686    198.06881    162.07011   -76.581836    22100.273   0.73367965 
  149000       149000    1450.7279    1309.8843    1107.7215    202.16287    158.06789    436.98174    22100.273   0.73367965 
  150000       150000    1276.7499    1275.6484    1103.2945    172.35387    157.43617    3.4176079    22100.273   0.73367965 
  151000       151000    844.01179    1325.8808    1147.5706    178.31019    163.75421   -1495.0491    22100.273   0.73367965 
  152000       152000    1142.0933    1331.3372    1141.6174    189.71973    162.90472     -587.149    22100.273   0.73367965 
  153000       153000     1432.762    1287.0599    1131.6601    155.39986    161.48384    452.05583    22100.273   0.73367965 
  154000       154000    1574.5921    1287.7784    1117.0124    170.76604    159.39367     889.8694    22100.273   0.73367965 
  155000       155000    1074.3337    1268.0938    1098.4472    169.64653    156.74448   -601.16077    22100.273   0.73367965 
  156000       156000    1192.2081    1283.4533    1106.3735     177.0798    157.87553   -283.09756    22100.273   0.73367965 
  157000       157000    1340.6205    1343.1531     1144.382    198.77103    163.29922   -7.8576171    22100.273   0.73367965 
  158000       158000    1347.5579    1300.0901    1108.2943    191.79582    158.14962    147.27385    22100.273   0.73367965 
  159000       159000    1220.6184    1282.4725    1101.2175    181.25503    157.13978   -191.90884    22100.273   0.73367965 
  160000       160000    1536.8883    1290.1633    1108.1525    182.01082    158.12939    765.49011    22100.273   0.73367965 
  161000       161000    1275.8491    1331.1378    1128.4998    202.63798    161.03288   -171.53909    22100.273   0.73367965 
  162000       162000    936.63757    1297.7507    1123.6741    174.07655    160.34427   -1120.3912    22100.273   0.73367965 
  163000       163000    1473.3049    1323.7135    1110.6578    213.05566     158.4869    464.12303    22100.273   0.73367965 
  164000       164000    891.29955    1266.6805    1116.1978    150.48274    159.27742   -1164.6587    22100.273   0.73367965 
  165000       165000      1120.19    1311.3796    1128.9489    182.43078    161.09696   -593.18577    22100.273   0.73367965 
  166000       166000     1557.692    1316.2432    1126.8413    189.40191    160.79622    749.12005    22100.273   0.73367965 
  167000       167000    1698.6887    1328.0727    1141.8855    186.18718    162.94297    1149.8751    22100.273   0.73367965 
  168000       168000    1409.4435    1279.1139    1098.8023    180.31165    156.79515    404.36102    22100.273   0.73367965 
  169000       169000    1387.5378    1304.8723    1141.1541     163.7182     162.8386    256.47843    22100.273   0.73367965 
  170000       170000    964.78825    1333.3553    1140.5811    192.77421    162.75683   -1143.5178    22100.273   0.73367965 
  171000       171000    1343.1513     1266.755    1112.7421    154.01291    158.78432    237.02751    22100.273   0.73367965 
  172000       172000    909.42442    1276.2593    1095.4425    180.81686    156.31572   -1138.1438    22100.273   0.73367965 
  173000       173000    1089.9257    1324.8292     1118.003    206.82625    159.53502   -728.81274    22100.273   0.73367965 
  174000       174000    1247.3282    1330.9133    1120.9077     210.0055    159.94952   -259.33131    22100.273   0.73367965 
  175000       175000    1794.3593    1292.4277    1099.9207    192.50708    156.95474    1557.2952    22100.273   0.73367965 
  176000       176000    1279.0585     1312.989    1139.6804    173.30859    162.62831   -105.27274    22100.273   0.73367965 
  177000       177000    1459.6686    1316.5935    1153.4944    163.09907    164.59952    443.90573    22100.273   0.73367965 
  178000       178000    1144.6765    1299.7607    1117.0401     182.7206    159.39763   -481.16514    22100.273   0.73367965 
  179000       179000    1230.7748    1299.8015    1118.7816    181.01987    159.64612   -214.16249    22100.273   0.73367965 
  180000       180000    1611.7588    1348.7382    1144.4855    204.25271    163.31397    816.04902    22100.273   0.73367965 
  181000       181000    752.40857    1299.5322    1125.9948    173.53743    160.67542   -1697.5084    22100.273   0.73367965 
  182000       182000    626.96859    1312.5013     1126.235    186.26631     160.7097   -2126.9371    22100.273   0.73367965 
  183000       183000    1180.0144      1287.67    1082.2038    205.46615    154.42661   -334.01273    22100.273   0.73367965 
  184000       184000    1362.5697    1308.2156    1109.1745     199.0411    158.27522    168.63931    22100.273   0.73367965 
  185000       185000    1740.9322    1306.7601    1105.0598    201.70038    157.68807    1347.0642    22100.273   0.73367965 
  186000       186000    935.16104    1316.1648    1135.8915    180.27326    162.08765    -1182.104    22100.273   0.73367965 
  187000       187000    1715.5463    1292.4457    1074.7669    217.67885    153.36538    1312.7139    22100.273   0.73367965 
  188000       188000    1377.5299    1277.0329    1090.5804    186.45249    155.62192    311.80241    22100.273   0.73367965 
  189000       189000    1599.6738    1318.6761    1117.2958    201.38029    159.43411    871.82481    22100.273   0.73367965 
  190000       190000    1273.1989    1309.1654    1102.2856    206.87977    157.29221   -111.58991    22100.273   0.73367965 
  191000       191000    1359.1769    1306.5801    1090.5098     216.0703    155.61185    163.18685    22100.273   0.73367965 
  192000       192000    1184.0994    1298.4118    1116.8191    181.59272    159.36608   -354.66617    22100.273   0.73367965 
  193000       193000    1334.0323    1328.1325    1128.8981    199.23433    161.08972    18.304941    22100.273   0.73367965 
  194000       194000    1194.0829    1285.4884    1101.0343    184.45417    157.11365   -283.59516    22100.273   0.73367965 
  195000       195000      754.745    1291.7409    1102.5468    189.19408    157.32947   -1666.0859    22100.273   0.73367965 
  196000       196000    1094.2799    1335.2661     1142.513    192.75305    163.03251   -747.68473    22100.273   0.73367965 
  197000       197000     1150.753    1317.9242    1116.5218    201.40239    159.32366   -518.66625    22100.273   0.73367965 
  198000       198000    1771.4814    1297.9522    1097.0047    200.94747    156.53864    1469.1739    22100.273   0.73367965 
  199000       199000    665.12354    1279.3742    1114.4448    164.92938    159.02728   -1905.7771    22100.273   0.73367965 
  200000       200000    1456.2836    1274.1985    1087.2667    186.93173    155.14907    564.93837    22100.273   0.73367965 
  201000       201000    1358.9376    1323.0922    1119.2557    203.83652    159.71378    111.21397    22100.273   0.73367965 
  202000       202000    1140.6159    1305.6164    1110.2422    195.37415    158.42759   -511.93135    22100.273   0.73367965 
  203000       203000    1632.7134    1320.6401    1143.7877     176.8524    163.21441    968.24026    22100.273   0.73367965 
  204000       204000    1325.3889    1358.9328    1137.4295    221.50327    162.30712    -104.0735    22100.273   0.73367965 
  205000       205000    1157.3457    1286.5364    1085.5761     200.9603    154.90782   -400.82764    22100.273   0.73367965 
  206000       206000    1252.9959    1269.3982    1095.1122    174.28602    156.26859   -50.889976    22100.273   0.73367965 
  207000       207000    1949.8606    1323.8988    1140.6332    183.26554    162.76428     1942.112    22100.273   0.73367965 
  208000       208000    1438.1895    1368.4076    1126.6494    241.75821    160.76883    216.50572    22100.273   0.73367965 
  209000       209000    1235.7547     1313.087    1109.6722    203.41485    158.34625   -239.93156    22100.273   0.73367965 
  210000       210000    1628.2865    1318.9187    1134.1315    184.78723     161.8365    959.84597    22100.273   0.73367965 
  211000       211000    1316.7353    1277.1442    1116.3294    160.81484    159.29621    122.83534    22100.273   0.73367965 
  212000       212000    1044.5618    1334.9316    1115.2807    219.65093    159.14656   -900.90274    22100.273   0.73367965 
  213000       213000    1082.7837    1302.4651    1121.6672    180.79795    160.05788   -681.58451    22100.273   0.73367965 
  214000       214000    1249.1758    1329.8009    1140.3869    189.41397    162.72913   -250.14774    22100.273   0.73367965 
  215000       215000    1504.7083    1351.9765    1145.6663    206.31012    163.48248    473.86641    22100.273   0.73367965 
  216000       216000    1838.1355    1300.5424     1112.588    187.95441    158.76232    1667.9391    22100.273   0.73367965 
  217000       217000    1753.2738    1360.4623    1146.0825    214.37982    163.54187    1218.7387    22100.273   0.73367965 
  218000       218000    1438.8983    1299.1735    1106.8423    192.33124    157.94243     433.5109    22100.273   0.73367965 
  219000       219000    1394.1761    1279.1006    1104.8701    174.23044    157.66101    357.03403    22100.273   0.73367965 
  220000       220000    1162.1623     1334.674    1125.3176    209.35636    160.57879   -535.23555    22100.273   0.73367965 
  221000       221000     1181.989    1284.9152     1115.458    169.45719    159.17186   -319.33921    22100.273   0.73367965 
  222000       222000    855.78652    1305.9638    1130.0829     175.8809    161.25878   -1396.7221    22100.273   0.73367965 
  223000       223000    905.84772    1321.7247     1144.037    177.68772    163.24998   -1290.3019    22100.273   0.73367965 
  224000       224000    1307.5296     1282.058    1115.4531     166.6049    159.17116    79.028329    22100.273   0.73367965 
  225000       225000    1526.8569    1373.4396    1168.5453    204.89431    166.74723    475.99318    22100.273   0.73367965 
  226000       226000    1696.3179    1299.7048     1113.346    186.35883    158.87048    1230.5336    22100.273   0.73367965 
  227000       227000    1434.8861    1254.6969     1088.756    165.94093    155.36157    559.05601    22100.273   0.73367965 
  228000       228000    1593.1979    1306.8025    1114.0289    192.77359    158.96793    888.57175    22100.273   0.73367965 
  229000       229000    1435.4573    1305.3164    1127.1184    178.19806    160.83576    403.77576    22100.273   0.73367965 
  230000       230000    1464.6213    1343.0819    1130.3045    212.77739    161.29041    377.08859    22100.273   0.73367965 
  231000       231000    1372.9007    1321.5295    1134.2369    187.29264    161.85154    159.38461    22100.273   0.73367965 
  232000       232000    1172.1358    1303.3489    1126.0295    177.31937    160.68038   -407.10242    22100.273   0.73367965 
  233000       233000    1182.1447    1337.3043    1136.9727    200.33161    162.24193   -481.39905    22100.273   0.73367965 
  234000       234000    1459.4983    1314.1395    1127.1804    186.95912     160.8446    450.99092    22100.273   0.73367965 
  235000       235000    1642.8575    1299.5534    1105.6965    193.85687    157.77893    1065.1369    22100.273   0.73367965 
  236000       236000    1112.2825    1291.5106    1091.8485    199.66206    155.80287   -556.07387    22100.273   0.73367965 
  237000       237000    1401.7827    1313.2447    1125.8593    187.38544    160.65608    274.69857    22100.273   0.73367965 
  238000       238000    1444.8603     1256.628    1096.6194    160.00856    156.48366    584.01061    22100.273   0.73367965 
  239000       239000    1625.9437    1290.7175    1111.9909    178.72659    158.67712    1040.0744    22100.273   0.73367965 
  240000       240000    1641.7382    1350.9349    1144.7728    206.16209    163.35498    902.24778    22100.273   0.73367965 
  241000       241000    1604.2518    1290.2574     1123.813    166.44442    160.36409    974.20025    22100.273   0.73367965 
  242000       242000    1738.8398    1317.8415    1136.9494    180.89211    162.23861    1306.1913    22100.273   0.73367965 
  243000       243000    1380.6464    1290.7547    1122.9987      167.756    160.24789     278.8984    22100.273   0.73367965 
  244000       244000    1392.6086     1296.255    1111.5551    184.69994    158.61493    298.94709    22100.273   0.73367965 
  245000       245000    1116.1793    1299.1762    1132.3893    166.78686     161.5879    -567.7669    22100.273   0.73367965 
  246000       246000    1351.6166    1280.6556    1085.3743    195.28122    154.87903    220.16403    22100.273   0.73367965 
  247000       247000    1381.1895    1366.7714    1146.8418    219.92958    163.65022    44.733674    22100.273   0.73367965 
  248000       248000    789.71153    1296.1842    1111.6669    184.51729    158.63089   -1571.3846    22100.273   0.73367965 
  249000       249000    1002.9304    1334.5608     1121.672    212.88876    160.05858   -1028.9179    22100.273   0.73367965 
  250000       250000    1462.0528    1275.0519    1088.0416     187.0103    155.25963    580.19005    22100.273   0.73367965 
  251000       251000    1602.3155    1320.9276    1128.8737    192.05398    161.08623    873.03529    22100.273   0.73367965 
  252000       252000    981.35045     1285.091    1115.8417     169.2493    159.22661   -942.38686    22100.273   0.73367965 
  253000       253000    1041.5328    1282.6208    1104.7426    177.87822    157.64281   -748.00074    22100.273   0.73367965 
  254000       254000    1638.7816    1344.6282    1124.7126    219.91561    160.49246    912.64174    22100.273   0.73367965 
  255000       255000    870.03513    1287.0868    1099.8181    187.26874     156.9401   -1293.9466    22100.273   0.73367965 
  256000       256000    654.81878    1234.8695    1092.8893    141.98025    155.95139   -1799.6683    22100.273   0.73367965 
  257000       257000    1145.2526    1376.7468    1152.6333     224.1135    164.47665   -718.23509    22100.273   0.73367965 
  258000       258000    1480.6378    1305.9572    1136.3133    169.64384    162.14784    541.96491    22100.273   0.73367965 
  259000       259000    1417.5083    1273.3642    1090.4718     182.8924    155.60641    447.22225    22100.273   0.73367965 
  260000       260000    1150.8095    1328.4123    1143.8173    184.59497    163.21864   -551.03144    22100.273   0.73367965 
  261000       261000    1324.2007    1298.7794    1118.2182    180.56125    159.56573    78.872165    22100.273   0.73367965 
  262000       262000     1292.726    1275.6565    1105.5917     170.0648    157.76397    52.960166    22100.273   0.73367965 
  263000       263000    1615.8436    1331.6816    1127.6905    203.99109    160.91739    881.64235    22100.273   0.73367965 
  264000       264000    1775.9293    1299.5803    1104.0079    195.57235    157.53798    1477.9228    22100.273   0.73367965 
  265000       265000    1123.4392     1285.925    1123.9136    162.01136    160.37845   -504.12923    22100.273   0.73367965 
  266000       266000    1163.4726     1312.574    1135.5118    177.06216    162.03347   -462.60261    22100.273   0.73367965 
  267000       267000    1415.2967    1302.2597    1079.2187      223.041    154.00065    350.70915    22100.273   0.73367965 
  268000       268000     1374.237    1295.3957     1113.558    181.83763    158.90074    244.61366    22100.273   0.73367965 
  269000       269000    1000.2805    1304.5202    1137.8242    166.69604    162.36343   -943.93574    22100.273   0.73367965 
  270000       270000    1634.0271    1347.7546    1116.8408    230.91379    159.36919    888.19042    22100.273   0.73367965 
  271000       271000     1496.018    1297.3366    1114.4016    182.93506    159.02111    616.42977    22100.273   0.73367965 
  272000       272000     2029.987    1321.2749    1117.8653    203.40959    159.51537    2198.8537    22100.273   0.73367965 
  273000       273000     1255.179    1364.4357    1122.9951    241.44058    160.24738   -338.98021    22100.273   0.73367965 
  274000       274000    1284.4761    1279.3147    1112.2427    167.07208    158.71304    16.013785    22100.273   0.73367965 
  275000       275000    1176.2602    1297.4185    1131.7304    165.68811    161.49387   -375.90631    22100.273   0.73367965 
  276000       276000    1131.6953    1270.3964    1090.9274      179.469    155.67143   -430.33454    22100.273   0.73367965 
  277000       277000    1160.0987    1320.7631    1119.6342     201.1289    159.76779   -498.47823    22100.273   0.73367965 
  278000       278000    972.21475    1348.2092    1142.1383    206.07085    162.97905   -1166.5621    22100.273   0.73367965 
  279000       279000    1093.6453    1303.9072    1126.5187    177.38851    160.75018    -652.3598    22100.273   0.73367965 
  280000       280000    1350.6237    1278.7484    1108.0394      170.709    158.11325    223.00057    22100.273   0.73367965 
  281000       281000    1626.4223    1306.5401    1111.3689    195.17114    158.58836    992.46818    22100.273   0.73367965 
  282000       282000    1691.9782    1311.3137    1121.3596    189.95412    160.01399    1181.0515    22100.273   0.73367965 
  283000       283000    1273.8854    1317.9983    1138.7786    179.21972    162.49962   -136.86488    22100.273   0.73367965 
  284000       284000    1585.1962     1296.636    1113.2791    183.35692    158.86094    895.28837    22100.273   0.73367965 
  285000       285000    1378.1396    1331.3637    1121.2524    210.11135     159.9987    145.12721    22100.273   0.73367965 
  286000       286000     1546.576    1341.9042    1117.4451    224.45909    159.45542    635.01569    22100.273   0.73367965 
  287000       287000    1292.4248    1296.8564    1123.8851    172.97124    160.37438   -13.749377    22100.273   0.73367965 
  288000       288000    1378.2432    1278.0199    1082.3302    195.68963    154.44465    310.95323    22100.273   0.73367965 
  289000       289000    1307.1054    1270.2935    1119.7506     150.5429     159.7844    114.21276    22100.273   0.73367965 
  290000       290000    1164.4932    1328.4966    1120.7732    207.72342    159.93032   -508.83784    22100.273   0.73367965 
  291000       291000    942.03781    1278.8959    1094.9641    183.93178    156.24746   -1045.1376    22100.273   0.73367965 
  292000       292000     1108.658    1325.2136    1128.2729    196.94071    161.00051   -671.88649    22100.273   0.73367965 
  293000       293000    1571.4998    1277.8273    1094.8582    182.96908    156.23234    911.14969    22100.273   0.73367965 
  294000       294000    1202.0788    1327.6206     1121.537    206.08361     160.0393   -389.50647    22100.273   0.73367965 
  295000       295000    1377.2796    1305.0393    1140.6502    164.38912     162.7667    224.13311    22100.273   0.73367965 
  296000       296000    1608.7018    1264.3144    1089.5001    174.81424    155.46776    1068.4982    22100.273   0.73367965 
  297000       297000    1777.3799    1303.3566    1133.2907    170.06588    161.71653    1470.7069    22100.273   0.73367965 
  298000       298000    1526.1738    1340.2375    1151.3329    188.90456    164.29108    576.88716    22100.273   0.73367965 
  299000       299000     1348.474    1311.1952    1110.1122    201.08292    158.40904     115.6615    22100.273   0.73367965 
  300000       300000    1441.5548    1328.6035    1145.3148    183.28869    163.43232    350.44309    22100.273   0.73367965 
  301000       301000    1072.3379    1341.2618    1118.3475    222.91432    159.58418   -834.36457    22100.273   0.73367965 
  302000       302000    1416.1959    1289.2043    1109.5026    179.70162    158.32205     394.0049    22100.273   0.73367965 
  303000       303000    1632.3785    1295.4357    1101.1759    194.25978    157.13386    1045.4003    22100.273   0.73367965 
  304000       304000    2589.0438    1355.7383    1141.7944    213.94389    162.92997    3826.4595    22100.273   0.73367965 
  305000       305000    1095.6387    1325.0184    1115.2866    209.73185     159.1474   -711.67467    22100.273   0.73367965 
  306000       306000    1456.4039    1272.4156    1131.3894    141.02623    161.44521    570.84307    22100.273   0.73367965 
  307000       307000     1549.286    1319.8923    1145.3405    174.55183    163.43598    711.71795    22100.273   0.73367965 
  308000       308000     1020.018    1295.9523    1120.6573      175.295    159.91379   -856.11518    22100.273   0.73367965 
  309000       309000    1253.1539    1273.3356    1120.1681    153.16756    159.84397   -62.616028    22100.273   0.73367965 
  310000       310000    1640.2153    1321.7394    1148.7731    172.96638     163.9258    988.10485    22100.273   0.73367965 
  311000       311000    1198.7495    1246.3162    1079.2797    167.03657    154.00934   -147.58072    22100.273   0.73367965 
  312000       312000    1079.5457    1310.9498    1093.5182    217.43154    156.04113   -717.95546    22100.273   0.73367965 
  313000       313000    1186.1994    1332.5927    1141.6536    190.93911    162.90987   -454.20045    22100.273   0.73367965 
  314000       314000    1437.3559    1311.1389    1122.5051     188.6337    160.17746    391.60172    22100.273   0.73367965 
  315000       315000    1375.4511    1336.6312      1140.26    196.37118    162.71102    120.44285    22100.273   0.73367965 
  316000       316000    1414.1914    1307.4484     1119.439    188.00938    159.73994    331.18153    22100.273   0.73367965 
  317000       317000     1224.057    1290.7384    1106.0318    184.70664    157.82677   -206.88618    22100.273   0.73367965 
  318000       318000    1957.6719    1246.9795    1082.8554    164.12416    154.51958    2204.9977    22100.273   0.73367965 
  319000       319000    1183.1046    1316.1583    1098.1335    218.02483    156.69972     -412.813    22100.273   0.73367965 
  320000       320000     1676.673    1280.0045    1123.3073    156.69721    160.29192    1230.7058    22100.273   0.73367965 
  321000       321000    1324.2394    1288.7868    1124.4275    164.35929    160.45177    109.99552    22100.273   0.73367965 
  322000       322000    1087.6892    1297.9084    1117.5855     180.3229    159.47545   -652.22728    22100.273   0.73367965 
  323000       323000    1132.4624    1331.7022    1142.4367    189.26548    163.02163   -618.16245    22100.273   0.73367965 
  324000       324000    1521.4659    1291.1612    1130.8308    160.33037     161.3655    714.54454    22100.273   0.73367965 
  325000       325000    1584.9018    1335.0968    1160.3163    174.78044    165.57298     775.0462    22100.273   0.73367965 
  326000       326000    1106.8528     1295.899    1093.5026    202.39632    156.03891   -586.53549    22100.273   0.73367965 
  327000       327000    1059.7892    1327.5834    1087.2341    240.34928    155.14441    -830.8594    22100.273   0.73367965 
  328000       328000    1062.8661    1235.5693    1091.6578    143.91148    155.77566   -535.82983    22100.273   0.73367965 
  329000       329000    1135.3065    1315.0823    1136.1722    178.91007    162.12771   -557.77336    22100.273   0.73367965 
  330000       330000    1186.6785    1293.1539    1103.6493    189.50456    157.48681   -330.35111    22100.273   0.73367965 
  331000       331000    1045.5172    1302.6731     1142.558    160.11513    163.03893   -797.85339    22100.273   0.73367965 
  332000       332000    1019.4688    1326.0653      1141.31    184.75535    162.86084   -951.24767    22100.273   0.73367965 
  333000       333000    1462.5346    1341.5097    1139.7638    201.74595    162.64021    375.49245    22100.273   0.73367965 
  334000       334000    1725.5676    1294.4264    1133.0733    161.35313     161.6855    1337.6609    22100.273   0.73367965 
  335000       335000    1509.8981    1298.7511    1112.2689     186.4822    158.71679    655.10548    22100.273   0.73367965 
  336000       336000    1667.8657    1334.2294    1135.2649    198.96445    161.99824    1035.1415    22100.273   0.73367965 
  337000       337000    1808.2538    1313.4719    1123.4485    190.02343    160.31207    1535.1127    22100.273   0.73367965 
  338000       338000    1134.1504    1348.3019    1143.7055    204.59643    163.20267   -664.42732    22100.273   0.73367965 
  339000       339000    1344.3711    1294.9933    1100.9937    193.99965    157.10785    153.19974    22100.273   0.73367965 
  340000       340000    1397.1239    1368.5968    1165.0783    203.51848     166.2525    88.508275    22100.273   0.73367965 
  341000       341000    1400.2013     1311.251    1137.4085    173.84249    162.30412    275.97759    22100.273   0.73367965 
  342000       342000    1150.8943    1269.2323     1084.427    184.80529    154.74385   -367.15606    22100.273   0.73367965 
  343000       343000    1165.4681    1292.4738    1100.6364    191.83739    157.05688   -394.04843    22100.273   0.73367965 
  344000       344000    1475.1915    1278.7307    1113.0339    165.69682    158.82595    609.54024    22100.273   0.73367965 
  345000       345000      1373.98    1270.0822    1084.3369    185.74538    154.73099    322.35355    22100.273   0.73367965 
  346000       346000    1528.6075    1311.3787     1102.643    208.73569     157.3432     673.9754    22100.273   0.73367965 
  347000       347000    987.52277    1369.3702    1165.9022    203.46804    166.37006   -1184.7217    22100.273   0.73367965 
  348000       348000    1097.7343    1333.9093    1111.4069    222.50247    158.59378   -732.75794    22100.273   0.73367965 
  349000       349000    1006.8073    1303.1116    1109.9909    193.12063    158.39173   -919.31504    22100.273   0.73367965 
  350000       350000    1135.3162    1284.5515    1095.8916    188.65992    156.37981   -463.01825    22100.273   0.73367965 
  351000       351000    1487.6472    1294.4811     1116.157    178.32415     159.2716    599.31791    22100.273   0.73367965 
  352000       352000    1042.2263    1325.6102    1126.9628    198.64736    160.81356    -879.2283    22100.273   0.73367965 
  353000       353000    1284.8234    1304.9523    1110.8506     194.1017    158.51441    -62.45229    22100.273   0.73367965 
  354000       354000    1673.8448    1339.6749    1128.2275    211.44742    160.99402    1036.7973    22100.273   0.73367965 
  355000       355000    1486.4323    1357.4626    1175.4424     182.0202    167.73142    400.14204    22100.273   0.73367965 
  356000       356000    1624.5659    1297.0014    1113.4827    183.51868    158.88999    1016.3033    22100.273   0.73367965 
  357000       357000    1782.3016    1334.1709    1138.2804    195.89047    162.42854    1390.3724    22100.273   0.73367965 
  358000       358000    1597.1032    1303.0257     1108.235    194.79065    158.14117    912.40625    22100.273   0.73367965 
  359000       359000    1695.2625    1315.7476     1127.076    188.67154    160.82971    1177.4847    22100.273   0.73367965 
  360000       360000    1267.3037    1304.2568    1111.8781    192.37877    158.66102   -114.65091    22100.273   0.73367965 
  361000       361000    1495.9721    1338.2994    1131.3961    206.90332    161.44617     489.1961    22100.273   0.73367965 
  362000       362000    1373.5692     1285.756    1118.4291    167.32691    159.59583    272.44957    22100.273   0.73367965 
  363000       363000    1631.2761    1320.6581     1132.962    187.69614    161.66962      963.725    22100.273   0.73367965 
  364000       364000    1530.2892    1354.8119     1160.931     193.8809     165.6607    544.43672    22100.273   0.73367965 
  365000       365000    1180.2609    1294.8467    1100.7601    194.08657    157.07452   -355.51432    22100.273   0.73367965 
  366000       366000    1452.4055    1313.6993    1112.5331    201.16618    158.75449    430.35065    22100.273   0.73367965 
  367000       367000    1424.2421    1385.8574    1146.3655    239.49192    163.58225     119.0925    22100.273   0.73367965 
  368000       368000    1146.6412    1283.3299    1091.7206    191.60932    155.78461   -424.09097    22100.273   0.73367965 
  369000       369000    1416.3872    1328.0733    1156.0973    171.97596    164.97094    274.00311    22100.273   0.73367965 
  370000       370000    1478.1816    1299.1129    1140.6426    158.47028    162.76561    555.57962    22100.273   0.73367965 
  371000       371000    937.36942    1295.9543    1117.1501    178.80417    159.41332   -1112.5471    22100.273   0.73367965 
  372000       372000    830.99305    1341.4499    1149.3288    192.12109    164.00511    -1583.746    22100.273   0.73367965 
  373000       373000    1095.2795    1339.1049    1119.0518    220.05311    159.68468   -756.49381    22100.273   0.73367965 
  374000       374000    993.76326    1307.7169    1116.2082    191.50872    159.27891   -974.07408    22100.273   0.73367965 
  375000       375000    1721.9115    1294.7552     1113.964    180.79118    158.95868     1325.297    22100.273   0.73367965 
  376000       376000    1298.2756    1316.6803    1115.6539    201.02643    159.19981   -57.102597    22100.273   0.73367965 
  377000       377000    1475.1058    1344.0433    1140.3254    203.71796    162.72035    406.63509    22100.273   0.73367965 
  378000       378000    1287.1411    1309.1141    1098.8167    210.29744     156.7972    -68.17362    22100.273   0.73367965 
  379000       379000    813.17184    1318.1017    1098.4183    219.68346    156.74035   -1566.5979    22100.273   0.73367965 
  380000       380000    1704.7938    1319.6823     1120.386    199.29634    159.87507    1194.8486    22100.273   0.73367965 
  381000       381000    1859.7188    1287.7141    1143.6105    144.10359    163.18912    1774.7047    22100.273   0.73367965 
  382000       382000    1788.5258     1329.339    1116.7617    212.57731    159.35789    1424.6754    22100.273   0.73367965 
  383000       383000    926.22707    1270.4964    1106.7224    163.77393    157.92533   -1068.1316    22100.273   0.73367965 
  384000       384000    1171.1117    1305.7792    1134.4761    171.30304    161.88568   -417.82006    22100.273   0.73367965 
  385000       385000    1623.8435    1339.6439    1138.1587     201.4852    162.41117    881.75887    22100.273   0.73367965 
  386000       386000     1533.128     1292.946    1120.9065    172.03947    159.94935    745.19001    22100.273   0.73367965 
  387000       387000    1670.8758    1351.2457     1125.172    226.07372    160.55801    991.68584    22100.273   0.73367965 
  388000       388000    1356.4131    1254.0295     1118.019    136.01053     159.5373     317.6557    22100.273   0.73367965 
  389000       389000    1670.9295    1315.1543    1144.6781    170.47613    163.34147      1103.83    22100.273   0.73367965 
  390000       390000    1293.1472    1289.3149     1108.634    180.68095     158.1981    11.889993    22100.273   0.73367965 
  391000       391000    1154.8769    1319.1055    1123.2343    195.87115    160.28152   -509.53632    22100.273   0.73367965 
  392000       392000    1273.9309    1349.5206    1138.2323     211.2883    162.42167   -234.52489    22100.273   0.73367965 
  393000       393000    1793.2525    1274.6604    1096.3719    178.28851    156.44834    1608.9863    22100.273   0.73367965 
  394000       394000    1661.9357    1316.3506    1135.2637    181.08691    161.99806     1072.214    22100.273   0.73367965 
  395000       395000      1977.47     1342.474    1141.0338    201.44016    162.82144    1970.1415    22100.273   0.73367965 
  396000       396000    1170.7388    1253.4358    1093.9891    159.44663    156.10833   -256.57613    22100.273   0.73367965 
  397000       397000    932.66196    1320.7909    1128.4952    192.29574    161.03222   -1204.2108    22100.273   0.73367965 
  398000       398000    1169.0935    1319.9542    1105.9575     213.9967    157.81617   -468.06107    22100.273   0.73367965 
  399000       399000    1414.3753    1330.7922    1160.0349    170.75726    165.53283    259.32551    22100.273   0.73367965 
  400000       400000    1313.2215     1303.945    1131.5363    172.40865    161.46618    28.781278    22100.273   0.73367965 
  401000       401000     1461.633     1283.419    1088.4048    195.01417    155.31147    552.92764    22100.273   0.73367965 
  402000       402000     1335.428    1317.6978    1123.5713     194.1265     160.3296    55.009665    22100.273   0.73367965 
  403000       403000    1839.5718     1345.398    1134.7538    210.64421    161.92531     1533.226    22100.273   0.73367965 
  404000       404000    1428.2055    1313.8731    1118.0589    195.81421      159.543    354.72819    22100.273   0.73367965 
  405000       405000    1352.2181    1273.2448    1093.1416     180.1033    155.98738    245.02274    22100.273   0.73367965 
  406000       406000    1243.5142    1350.3447    1155.7729    194.57177    164.92466   -331.45296    22100.273   0.73367965 
  407000       407000    1430.1185    1304.4342    1128.9226    175.51154    161.09322    389.94881    22100.273   0.73367965 
  408000       408000    1570.1177    1314.2534    1123.6661    190.58729    160.34313    793.84568    22100.273   0.73367965 
  409000       409000    1644.4535    1277.6271    1100.5449    177.08219    157.04382    1138.1174    22100.273   0.73367965 
  410000       410000    1758.0093     1325.777    1120.3527    205.42428    159.87031    1341.0461    22100.273   0.73367965 
  411000       411000    1183.7527    1294.5898    1114.5768    180.01304    159.04612   -343.88373    22100.273   0.73367965 
  412000       412000     1493.325    1264.4185    1080.3407    184.07781    154.16074    710.20642    22100.273   0.73367965 
  413000       413000    1634.0989     1316.416    1123.1361     193.2799    160.26749    985.64446    22100.273   0.73367965 
  414000       414000    1673.3058    1242.4043    1084.8757    157.52852    154.80788    1336.9171    22100.273   0.73367965 
  415000       415000    1244.4994    1318.6371    1122.2046    196.43252    160.13458   -230.02021    22100.273   0.73367965 
  416000       416000    1104.7953    1290.0433    1113.0873    176.95596    158.83358   -574.75132    22100.273   0.73367965 
  417000       417000    1642.5159    1308.2486    1104.5857    203.66295    157.62042    1037.0992    22100.273   0.73367965 
  418000       418000    1657.4818    1325.6958    1134.2247    191.47107     161.8498    1029.4009    22100.273   0.73367965 
  419000       419000     1272.563    1326.2696    1116.3019     209.9677    159.29228   -166.63042    22100.273   0.73367965 
  420000       420000    1338.3448    1296.4626    1106.8855    189.57714    157.94859    129.94389    22100.273   0.73367965 
  421000       421000    1550.1736    1298.1556    1097.9018    200.25389    156.66665    781.91225    22100.273   0.73367965 
  422000       422000    1404.0049    1322.2709     1109.245    213.02594    158.28529    253.58819    22100.273   0.73367965 
  423000       423000    864.03026    1282.9405    1104.7418    178.19872    157.64269   -1299.7128    22100.273   0.73367965 
  424000       424000    1232.5974    1316.1901    1112.8246    203.36543    158.79609   -259.35503    22100.273   0.73367965 
  425000       425000     1109.214    1335.6878    1125.1306    210.55719    160.55211   -702.65897    22100.273   0.73367965 
  426000       426000    1391.2715    1257.5844    1081.1163     176.4681    154.27142    414.77836    22100.273   0.73367965 
  427000       427000    1367.9785    1325.4165     1133.663    191.75343    161.76965    132.05308    22100.273   0.73367965 
  428000       428000    1149.3178    1300.3347    1134.9385    165.39617    161.95166   -468.54563    22100.273   0.73367965 
  429000       429000    1023.6472    1325.7378    1155.0197    170.71813    164.81717   -937.26795    22100.273   0.73367965 
  430000       430000    1094.3512    1355.7774    1143.9626    211.81483    163.23936   -811.10233    22100.273   0.73367965 
  431000       431000    1224.9153     1305.577    1088.5518    217.02521    155.33244   -250.26122    22100.273   0.73367965 
  432000       432000    1386.7525    1335.9757    1151.2078    184.76785    164.27323    157.54034    22100.273   0.73367965 
  433000       433000    1377.3117    1282.9428    1123.1457    159.79711    160.26887    292.78916    22100.273   0.73367965 
  434000       434000    1204.2172    1323.1548    1111.9145    211.24027    158.66622   -369.01641    22100.273   0.73367965 
  435000       435000    1589.1642     1354.536    1148.7822    205.75381     163.9271     727.9588    22100.273   0.73367965 
  436000       436000    1410.8905    1317.4064    1141.4068    175.99952    162.87467    290.04429    22100.273   0.73367965 
  437000       437000     1200.149    1276.4634    1090.2303    186.23311    155.57196   -236.77357    22100.273   0.73367965 
  438000       438000    1225.2546    1331.5031    1114.5588    216.94432    159.04355   -329.64719    22100.273   0.73367965 
  439000       439000    1151.2677    1212.2073    1083.7437    128.46364    154.64634   -189.07153    22100.273   0.73367965 
  440000       440000    1686.5676    1311.1089    1144.2439    166.86493    163.27951    1164.9001    22100.273   0.73367965 
  441000       441000    1617.8736    1246.9397    1085.7775    161.16215    154.93656    1150.8615    22100.273   0.73367965 
  442000       442000    1084.4579    1315.6673    1121.7368    193.93055    160.06782   -717.35141    22100.273   0.73367965 
  443000       443000      939.148    1308.8214    1105.9974    202.82401    157.82187   -1146.9505    22100.273   0.73367965 
  444000       444000    1489.9239    1312.2583    1115.4233    196.83506     159.1669    551.22619    22100.273   0.73367965 
  445000       445000    865.53014    1334.1828    1131.7307    202.45201    161.49392   -1454.0438    22100.273   0.73367965 
  446000       446000    1169.5951    1297.1406    1126.2315    170.90914     160.7092   -395.72318    22100.273   0.73367965 
  447000       447000    1099.5333    1336.8469    1148.4616    188.38535    163.88135   -736.29045    22100.273   0.73367965 
  448000       448000    1715.7942    1272.4878    1084.1619    188.32586    154.70602    1375.4048    22100.273   0.73367965 
  449000       449000    1567.8248    1251.5228      1075.97     175.5528    153.53706    981.36017    22100.273   0.73367965 
  450000       450000    1686.0775    1315.2269    1123.7493    191.47755      160.355    1150.6028    22100.273   0.73367965 
  451000       451000    1678.1089    1322.6428    1123.9154    198.72745    160.37869    1102.8707    22100.273   0.73367965 
  452000       452000    1531.6409    1306.1221    1116.4965    189.62563    159.32005    699.69565    22100.273   0.73367965 
  453000       453000    1229.0789    1299.6738    1110.1562     189.5176    158.41531   -219.02786    22100.273   0.73367965 
  454000       454000    1249.3621    1343.3865    1122.0965       221.29    160.11915   -291.72077    22100.273   0.73367965 
  455000       455000     1814.126    1322.1043    1120.1379    201.96645    159.83966    1526.5489    22100.273   0.73367965 
  456000       456000    1260.5525     1249.679    1076.6671     173.0119    153.63654    33.736138    22100.273   0.73367965 
  457000       457000    1448.4095    1314.2748    1130.5225    183.75228    161.32151    416.16697    22100.273   0.73367965 
  458000       458000    1708.8847    1343.8805    1145.2566    198.62385    163.42401     1132.464    22100.273   0.73367965 
  459000       459000    1789.9206     1323.641    1117.8095     205.8314    159.50742    1446.6815    22100.273   0.73367965 
  460000       460000    1229.5478    1273.4292    1101.4161    172.01306    157.16814   -136.14664    22100.273   0.73367965 
  461000       461000     1468.384    1344.5958    1156.5485    188.04736    165.03532    384.06579    22100.273   0.73367965 
  462000       462000    1147.0664    1332.2101    1123.6525    208.55756    160.34119   -574.42774    22100.273   0.73367965 
  463000       463000    1284.3892    1285.9686     1110.677    175.29159    158.48963   -4.9002055    22100.273   0.73367965 
  464000       464000    1440.1801    1309.5438    1120.2242    189.31968    159.85197    405.31257    22100.273   0.73367965 
  465000       465000    1495.1733    1367.5962    1140.6918    226.90443    162.77263    395.82124    22100.273   0.73367965 
  466000       466000     1008.114    1317.8024    1102.4375    215.36487    157.31389   -960.84067    22100.273   0.73367965 
  467000       467000    1249.6615    1310.6458    1125.1598    185.48598    160.55628   -189.21012    22100.273   0.73367965 
  468000       468000    1134.3627     1301.996    1135.3405    166.65558    162.00902   -520.09995    22100.273   0.73367965 
  469000       469000    1500.4186    1333.4314    1127.0715    206.35987    160.82907    518.09546    22100.273   0.73367965 
  470000       470000    1070.7754    1299.5885    1103.8089    195.77961    157.50957   -709.91643    22100.273   0.73367965 
  471000       471000    1364.5195     1306.227    1119.6742    186.55273     159.7735    180.85864    22100.273   0.73367965 
  472000       472000    1920.7923    1339.0937    1121.3492    217.74451    160.01251    1804.7808    22100.273   0.73367965 
  473000       473000    1495.2154    1309.4217    1114.4407    194.98101    159.02669     576.4444    22100.273   0.73367965 
  474000       474000    1543.6951    1273.3069    1115.0875    158.21941      159.119    838.90759    22100.273   0.73367965 
  475000       475000    1353.9042    1320.8431     1128.126    192.71713    160.97954    102.57559    22100.273   0.73367965 
  476000       476000    1634.0672    1328.5852    1143.9846    184.60062    163.24251    947.78996    22100.273   0.73367965 
  477000       477000    1508.1871    1280.1041    1118.2138    161.89032     159.5651    707.65138    22100.273   0.73367965 
  478000       478000     1667.089    1316.6313     1135.916    180.71528    162.09115    1087.3318    22100.273   0.73367965 
  479000       479000     1069.848    1312.9889    1122.9166    190.07227    160.23618   -754.37005    22100.273   0.73367965 
  480000       480000    1740.0346    1282.2304     1107.667    174.56342    158.06011    1420.3854    22100.273   0.73367965 
  481000       481000     1348.427    1327.8639    1138.6719    189.19199     162.4844    63.799204    22100.273   0.73367965 
  482000       482000    1631.6759    1355.6834    1136.9618    218.72158    162.24037     856.2959    22100.273   0.73367965 
  483000       483000    1235.9998    1281.7084    1094.9564    186.75191    156.24636   -141.81562    22100.273   0.73367965 
  484000       484000     1659.768    1320.7894    1119.6711     201.1182    159.77306    1051.7169    22100.273   0.73367965 
  485000       485000    1251.3736    1233.6909    1089.3564    144.33456    155.44725    54.862476    22100.273   0.73367965 
  486000       486000    1251.7049    1312.3922    1123.3048    189.08741    160.29157   -188.28884    22100.273   0.73367965 
  487000       487000    1189.0255     1242.484    1080.1192    162.36475    154.12914   -165.86057    22100.273   0.73367965 
  488000       488000    1337.1799    1307.5345    1146.2993    161.23515     163.5728    91.978233    22100.273   0.73367965 
  489000       489000    1494.3119    1337.8039    1123.1123    214.69161     160.2641    485.58246    22100.273   0.73367965 
  490000       490000    1580.6503    1308.0058    1114.9506    193.05529    159.09945    845.90807    22100.273   0.73367965 
  491000       491000    742.26879    1277.6853    1101.4882    176.19701    157.17843   -1661.1857    22100.273   0.73367965 
  492000       492000    850.59736    1333.4138    1146.5607    186.85301    163.61011   -1497.9885    22100.273   0.73367965 
  493000       493000    1433.2891    1306.0664    1115.4496    190.61671    159.17067    394.72178    22100.273   0.73367965 
  494000       494000    1735.5289    1359.1544     1131.773    227.38137    161.49995    1167.7416    22100.273   0.73367965 
  495000       495000    1027.2386      1280.37    1086.6276    193.74244    155.05786   -785.36678    22100.273   0.73367965 
  496000       496000    1408.4661    1336.4692    1130.2875    206.18165    161.28798    223.37796    22100.273   0.73367965 
  497000       497000    1047.2206    1289.3478    1111.0163    178.33143    158.53805   -751.22499    22100.273   0.73367965 
  498000       498000    598.77176    1307.4859    1114.3294    193.15644    159.01082   -2198.8599    22100.273   0.73367965 
  499000       499000    1376.1171    1318.4885    1120.6454    197.84309    159.91208    178.79878    22100.273   0.73367965 
  500000       500000    852.33269    1284.6021    1110.5013    174.10077    158.46455    -1341.161    22100.273   0.73367965 
  501000       501000    876.85676    1299.2868     1118.469    180.81776    159.60152   -1310.6334    22100.273   0.73367965 
  502000       502000    999.51099    1312.4842    1122.2406    190.24357    160.13972   -971.03216    22100.273   0.73367965 
  503000       503000    1495.1405    1291.0164    1121.9583    169.05814    160.09943     633.3164    22100.273   0.73367965 
  504000       504000    1321.1575    1326.5247    1140.4369    186.08782    162.73625   -16.652095    22100.273   0.73367965 
  505000       505000    1560.5872    1293.7235    1094.8122    198.91126    156.22578    827.97265    22100.273   0.73367965 
  506000       506000    1420.4083     1316.006    1122.4245    193.58144    160.16596    323.91914    22100.273   0.73367965 
  507000       507000    1259.5953    1263.5643    1080.7505    182.81385    154.21922   -12.314245    22100.273   0.73367965 
  508000       508000    873.71147    1324.6241    1132.4982    192.12588    161.60344   -1399.0037    22100.273   0.73367965 
  509000       509000    1185.8168    1347.8099    1141.7699    206.04001    162.92647   -502.60045    22100.273   0.73367965 
  510000       510000    1379.2808    1288.0651    1115.7928    172.27229    159.21964    283.00617    22100.273   0.73367965 
  511000       511000    1548.1863    1365.2086    1151.7246    213.48403    164.34697    567.70767    22100.273   0.73367965 
  512000       512000    1651.8565     1280.633    1097.5493    183.08373    156.61635    1151.7596    22100.273   0.73367965 
  513000       513000    1617.6694    1303.3548    1112.3636    190.99117     158.7303    975.19401    22100.273   0.73367965 
  514000       514000    1492.8386    1326.5105    1121.6219    204.88856    160.05143    516.05035    22100.273   0.73367965 
  515000       515000    972.47241    1295.3157    1104.8851     190.4306    157.66315   -1001.6552    22100.273   0.73367965 
  516000       516000    1040.2432    1276.8998    1093.8372    183.06262    156.08665   -734.25206    22100.273   0.73367965 
  517000       517000     1358.077    1296.9696      1087.68    209.28958    155.20804    189.59219    22100.273   0.73367965 
  518000       518000    1317.5186    1377.5413    1153.8263    223.71494    164.64689   -186.22673    22100.273   0.73367965 
  519000       519000    839.19367    1295.6455    1110.2905    185.35499    158.43448   -1416.1896    22100.273   0.73367965 
  520000       520000    1459.6434    1273.4443    1114.3207    159.12365    159.00957    577.70212    22100.273   0.73367965 
  521000       521000    1323.6093    1305.4578    1139.5488    165.90907    162.60953     56.31695    22100.273   0.73367965 
  522000       522000     1416.515     1283.895    1103.3749    180.52015    157.44764    411.46746    22100.273   0.73367965 
  523000       523000    1696.8279    1340.9299    1130.4881    210.44175     161.3166     1104.211    22100.273   0.73367965 
  524000       524000    1464.1935    1297.1512    1109.9534    187.19782    158.38637    518.26638    22100.273   0.73367965 
  525000       525000    1262.4494     1311.665    1129.0463    182.61865    161.11087   -152.69651    22100.273   0.73367965 
  526000       526000    1665.2479    1299.5225    1079.9692    219.55329    154.10773    1134.7015    22100.273   0.73367965 
  527000       527000    1125.6786    1323.8557    1133.9055    189.95017    161.80425    -614.8653    22100.273   0.73367965 
  528000       528000    1688.7342    1276.3194    1125.4781    150.84139    160.60169      1279.56    22100.273   0.73367965 
  529000       529000    1443.0114    1382.8063    1171.0259    211.78042     167.1012    186.79251    22100.273   0.73367965 
  530000       530000    1286.6677    1295.2944    1140.8801     154.4143    162.79951   -26.765189    22100.273   0.73367965 
  531000       531000    1680.6567    1350.5224    1124.5649    225.95753    160.47138     1024.276    22100.273   0.73367965 
  532000       532000    1313.3536    1332.9444    1149.9061    183.03829    164.08748   -60.782343    22100.273   0.73367965 
  533000       533000    1351.8739    1270.9081    1131.7663    139.14178    161.49899      251.205    22100.273   0.73367965 
  534000       534000    848.27997    1308.2838    1124.6495    183.63429    160.48346   -1427.2102    22100.273   0.73367965 
  535000       535000    1695.1837    1316.1637    1105.0237    211.13994    157.68293    1175.9494    22100.273   0.73367965 
  536000       536000    1268.0297     1261.644    1116.7217    144.92232    159.35219    19.812274    22100.273   0.73367965 
  537000       537000    1455.8792    1339.2293    1136.3143    202.91503    162.14797    361.91856    22100.273   0.73367965 
  538000       538000     981.5231     1275.968    1105.3598    170.60817    157.73089   -913.54613    22100.273   0.73367965 
  539000       539000    1084.4341    1311.8221    1109.7056    202.11653    158.35101   -705.49529    22100.273   0.73367965 
  540000       540000    1241.4329    1331.1231      1111.73    219.39312    158.63989    -278.2734    22100.273   0.73367965 
  541000       541000    1488.5561    1355.4638     1113.843    241.62082    158.94141    412.93275    22100.273   0.73367965 
  542000       542000    1441.0457    1292.0132    1089.8283    202.18486    155.51459    462.38923    22100.273   0.73367965 
  543000       543000    1118.0197    1338.6178    1137.5458    201.07198    162.32371   -684.42872    22100.273   0.73367965 
  544000       544000    1079.4659    1292.9155    1111.5378    181.37769    158.61246   -662.24963    22100.273   0.73367965 
  545000       545000    1872.6801    1300.3926    1085.1625    215.23009     154.8488    1775.5819    22100.273   0.73367965 
  546000       546000    1067.0463    1323.4664    1137.6617    185.80475    162.34025   -795.57043    22100.273   0.73367965 
  547000       547000    1703.1796    1324.0262    1125.8648    198.16145    160.65687    1176.3631    22100.273   0.73367965 
  548000       548000    1396.7867    1317.8816    1118.4342    199.44744    159.59655    244.81117    22100.273   0.73367965 
  549000       549000    1374.9736    1317.1027    1115.1549    201.94785     159.1286    179.55036    22100.273   0.73367965 
  550000       550000    1457.2361     1303.154    1118.8647    184.28929    159.65798    478.05587    22100.273   0.73367965 
  551000       551000    1035.8308    1337.5301     1132.899    204.63109    161.66063   -936.05367    22100.273   0.73367965 
  552000       552000    1070.8062    1295.9867    1109.3821    186.60454    158.30486   -698.64602    22100.273   0.73367965 
  553000       553000    1330.0291    1346.4592    1134.1301    212.32911     161.8363   -50.976234    22100.273   0.73367965 
  554000       554000    1379.7491    1316.0256    1112.7513    203.27426    158.78562    197.70899    22100.273   0.73367965 
  555000       555000    1473.6017     1221.231    1078.5934    142.63762    153.91142    783.00658    22100.273   0.73367965 
  556000       556000    1433.1165    1331.1996    1143.8747    187.32493    163.22682    316.20796    22100.273   0.73367965 
  557000       557000    1302.5818    1337.1266    1150.1906    186.93603    164.12807   -107.17884    22100.273   0.73367965 
  558000       558000    1373.9802    1283.9884    1092.6954    191.29296    155.92372    279.20898    22100.273   0.73367965 
  559000       559000    779.03164    1313.0297    1106.9773    206.05245    157.96169   -1656.7851    22100.273   0.73367965 
  560000       560000    1046.4248    1353.5287    1144.6088    208.91995    163.33157   -952.82223    22100.273   0.73367965 
  561000       561000    1015.1307    1323.8585    1145.3626     178.4959    163.43914   -957.86038    22100.273   0.73367965 
  562000       562000    1543.9501    1320.7683    1136.3136    184.45466    162.14788    692.44512    22100.273   0.73367965 
  563000       563000    1118.3392    1302.6073    1129.1203    173.48693    161.12143   -571.71091    22100.273   0.73367965 
  564000       564000    1562.8178    1313.3196     1130.461    182.85859    161.31274    774.09422    22100.273   0.73367965 
  565000       565000    1124.7175    1273.7337    1108.3403    165.39335    158.15619    -462.3384    22100.273   0.73367965 
  566000       566000    1329.6755    1327.9425    1134.3711    193.57132     161.8707    5.3769894    22100.273   0.73367965 
  567000       567000    1096.4346    1303.2937    1132.3499    170.94382    161.58227   -641.80195    22100.273   0.73367965 
  568000       568000     858.4933    1275.1567    1114.3402    160.81655    159.01235    -1292.742    22100.273   0.73367965 
  569000       569000    1315.0721    1321.7925    1121.6764    200.11613    160.05921   -20.850848    22100.273   0.73367965 
  570000       570000    1466.2146    1320.7446    1134.4538    186.29085    161.88249    451.33598    22100.273   0.73367965 
  571000       571000    1600.3785    1270.5843    1116.4788    154.10542    159.31753    1023.2213    22100.273   0.73367965 
  572000       572000    1576.0721    1333.8902    1123.1416    210.74862    160.26828    751.39482    22100.273   0.73367965 
  573000       573000    1284.1493    1285.9647    1113.3836    172.58113    158.87584   -5.6324349    22100.273   0.73367965 
  574000       574000    1117.5907    1358.2966    1166.8684     191.4282    166.50794   -746.81525    22100.273   0.73367965 
  575000       575000    1158.1785    1292.1163    1103.1839    188.93237    157.42039   -415.55609    22100.273   0.73367965 
  576000       576000    1350.2618     1323.504    1120.4745    203.02956    159.88769     83.01877    22100.273   0.73367965 
  577000       577000    1635.1383    1381.8712    1161.2198    220.65143    165.70191    785.78757    22100.273   0.73367965 
  578000       578000    831.06843    1293.0371    1123.1332    169.90387    160.26709   -1433.3063    22100.273   0.73367965 
  579000       579000    732.78383    1300.3117    1113.5922    186.71946    158.90562   -1760.8146    22100.273   0.73367965 
  580000       580000     1077.237    1329.5299    1139.0268    190.50316    162.53504   -782.76522    22100.273   0.73367965 
  581000       581000    896.54214    1326.6994    1132.3214    194.37806     161.5782   -1334.6081    22100.273   0.73367965 
  582000       582000    774.05173    1281.1696    1121.4466    159.72297    160.02641   -1573.3863    22100.273   0.73367965 
  583000       583000    1143.4459    1352.8146    1153.5154     199.2992    164.60252   -649.58853    22100.273   0.73367965 
  584000       584000    1222.5736    1283.4911    1105.4983    177.99285    157.75064   -189.00297    22100.273   0.73367965 
  585000       585000    1381.6585    1338.9348    1111.6825    227.25223    158.63312    132.55492    22100.273   0.73367965 
  586000       586000    1020.2505    1313.2192    1116.8569    196.36231    159.37147   -908.96593    22100.273   0.73367965 
  587000       587000    976.61513    1302.9393     1116.366    186.57331    159.30143    -1012.455    22100.273   0.73367965 
  588000       588000    1726.9882    1366.6664    1147.3828    219.28367    163.72741     1117.936    22100.273   0.73367965 
  589000       589000    980.68086    1327.4836    1156.2235     171.2601    164.98896    -1075.992    22100.273   0.73367965 
  590000       590000    822.03979    1329.9752    1120.8516    209.12357    159.94151   -1575.9229    22100.273   0.73367965 
  591000       591000    1331.8922    1307.8697    1102.3197    205.55002    157.29706    74.532316    22100.273   0.73367965 
  592000       592000    1419.4182    1364.6115    1127.6935    236.91804    160.91782    170.04343    22100.273   0.73367965 
  593000       593000    1366.1238    1297.4564    1123.2253    174.23114    160.28022    213.04769    22100.273   0.73367965 
  594000       594000    1084.4763    1320.5803    1130.0161    190.56422    161.24925   -732.53736    22100.273   0.73367965 
  595000       595000     1187.653    1290.8822    1097.0085    193.87374    156.53918   -320.27935    22100.273   0.73367965 
  596000       596000    1387.4966    1365.6278    1137.4563    228.17158    162.31093    67.850266    22100.273   0.73367965 
  597000       597000    1183.6149    1302.7655    1128.6237    174.14181    161.05055   -369.67723    22100.273   0.73367965 
  598000       598000     1392.988    1287.6176    1115.9445    171.67307    159.24129    326.92272    22100.273   0.73367965 
  599000       599000     1262.663    1281.4994    1095.5708    185.92865    156.33403   -58.441897    22100.273   0.73367965 
  600000       600000    1396.1939    1319.1923    1125.9968    193.19552    160.67571    238.90527    22100.273   0.73367965 
  601000       601000    1356.7827    1294.6793     1126.694    167.98529     160.7752    192.68212    22100.273   0.73367965 
  602000       602000    1424.0325    1337.1276    1138.2331     198.8945    162.42179    269.63166    22100.273   0.73367965 
  603000       603000    1208.4327    1313.7185    1133.0348    180.68371    161.68001   -326.66038    22100.273   0.73367965 
  604000       604000    1400.7756    1336.8478    1133.9697    202.87805    161.81342    198.34286    22100.273   0.73367965 
  605000       605000    1609.2675    1290.7684     1110.673    180.09544    158.48905    988.17673    22100.273   0.73367965 
  606000       606000     1036.504    1321.1561    1125.7814    195.37473    160.64497   -883.16314    22100.273   0.73367965 
[...]
  854000       854000    1029.5713     1277.929    1095.8063    182.12263    156.36764   -770.55581    22100.273   0.73367965 
  855000       855000    1147.9115    1277.3676    1100.6421    176.72549    157.05768   -401.65102    22100.273   0.73367965 
  856000       856000    1334.4051    1344.8492    1157.4024    187.44681    165.15718   -32.403954    22100.273   0.73367965 
  857000       857000    1207.5103    1314.7992    1119.6476    195.15152    159.76971   -332.87481    22100.273   0.73367965 
  858000       858000    1157.0537    1282.7952    1115.2466    167.54861     159.1417   -390.12636    22100.273   0.73367965 
  859000       859000    1334.2757    1357.8825    1163.0534    194.82911    165.96355   -73.242435    22100.273   0.73367965 
  860000       860000    1309.8853    1291.7461    1111.4537    180.29236    158.60046    56.278889    22100.273   0.73367965 
  861000       861000    1449.0139    1360.5284    1149.9973    210.53113    164.10049    274.53558    22100.273   0.73367965 
  862000       862000    1241.6889    1299.6279    1126.1058    173.52207    160.69127   -179.76202    22100.273   0.73367965 
  863000       863000    1350.6533    1307.9578    1128.5035    179.45431     161.0334    132.46733    22100.273   0.73367965 
  864000       864000    1686.6025    1314.3631    1113.6721    200.69107    158.91701    1154.9117    22100.273   0.73367965 
  865000       865000    1153.6954     1291.536    1110.7435    180.79249    158.49912   -427.66499    22100.273   0.73367965 
  866000       866000    1003.3918    1304.8046     1113.606     191.1986    158.90758   -935.16472    22100.273   0.73367965 
  867000       867000    1095.3702    1317.0689     1119.103    197.96593    159.69199   -687.84348    22100.273   0.73367965 
  868000       868000    1382.7638    1346.2322     1121.156    225.07615    159.98495    113.34338    22100.273   0.73367965 
  869000       869000    935.73748    1291.7038    1079.4949    212.20893    154.04005   -1104.4228    22100.273   0.73367965 
  870000       870000    1064.8595    1277.2038    1099.9278    177.27607    156.95575   -658.82055    22100.273   0.73367965 
  871000       871000    1337.2062    1320.9235    1137.0979    183.82568    162.25979    50.518786    22100.273   0.73367965 
  872000       872000    1686.9351    1277.1194    1098.4463    178.67313    156.74435    1271.4963    22100.273   0.73367965 
  873000       873000    2152.4535    1327.2376    1146.0496    181.18805    163.53717    2560.3188    22100.273   0.73367965 
  874000       874000    1322.7982     1316.747    1121.8896    194.85739    160.08963    18.774425    22100.273   0.73367965 
  875000       875000    1119.3944    1306.9701    1127.3573    179.61274    160.86985   -581.97302    22100.273   0.73367965 
  876000       876000     2179.097    1313.1089    1114.7888    198.32003    159.07637    2686.8191    22100.273   0.73367965 
  877000       877000    1539.7562    1288.7731    1092.9552    195.81796    155.96079    778.70128    22100.273   0.73367965 
  878000       878000    1720.7561    1334.9609    1131.3256    203.63526    161.43611    1196.9701    22100.273   0.73367965 
  879000       879000    1200.4467    1288.2681    1125.9841    162.28403     160.6739   -272.47523    22100.273   0.73367965 
  880000       880000    1000.5307    1282.1701    1122.3212    159.84895    160.15121   -873.81572    22100.273   0.73367965 
  881000       881000    1398.5086    1346.6008    1123.0581    223.54274    160.25637    161.04929    22100.273   0.73367965 
  882000       882000    1166.7676    1333.0753    1106.4992    226.57615    157.89347   -515.98712    22100.273   0.73367965 
  883000       883000    1520.6064    1356.6208    1135.2021    221.41872    161.98927    508.78237    22100.273   0.73367965 
  884000       884000    1590.5726    1311.6553     1129.239    182.41634    161.13835    865.37015    22100.273   0.73367965 
  885000       885000    1442.9893      1301.32    1115.4143    185.90576    159.16562    439.54391    22100.273   0.73367965 
  886000       886000    1480.9248    1306.9582    1106.5056    200.45266    157.89438    539.74964    22100.273   0.73367965 
  887000       887000    944.86405    1282.8389    1117.2189    165.62007    159.42313   -1048.6026    22100.273   0.73367965 
  888000       888000    1050.6985    1275.3214    1092.1967    183.12462    155.85256   -696.91585    22100.273   0.73367965 
  889000       889000    951.74027    1275.7128    1116.5547    159.15816    159.32835   -1005.1588    22100.273   0.73367965 
  890000       890000    1285.6708    1317.8971    1117.6175    200.27964    159.48001   -99.985517    22100.273   0.73367965 
  891000       891000    1098.8272    1249.4502    1112.4631    136.98707     158.7445   -467.32357    22100.273   0.73367965 
  892000       892000    1338.9339    1326.0619    1119.6628    206.39912    159.77186    39.936816    22100.273   0.73367965 
  893000       893000    1324.7115    1345.3321    1133.5179    211.81414    161.74895   -63.977389    22100.273   0.73367965 
  894000       894000    1246.9399    1321.5357    1107.6203    213.91545    158.05344   -231.44131    22100.273   0.73367965 
  895000       895000    1302.8064    1307.3536    1134.0497    173.30391    161.82483   -14.108341    22100.273   0.73367965 
  896000       896000    1643.6587    1346.4212    1132.7358    213.68541    161.63734    922.21035    22100.273   0.73367965 
  897000       897000    1248.8759    1285.5598    1113.4054    172.15438    158.87896   -113.81564    22100.273   0.73367965 
  898000       898000    1175.2136    1304.2062    1126.4752    177.73106    160.74397   -400.21312    22100.273   0.73367965 
  899000       899000    1303.4958    1350.5783    1161.9043    188.67403    165.79958   -146.07869    22100.273   0.73367965 
  900000       900000    1079.7043    1301.3612    1111.6999    189.66131    158.63559   -687.71375    22100.273   0.73367965 
  901000       901000    1310.6457     1340.563    1164.3286    176.23449    166.14551   -92.821746    22100.273   0.73367965 
  902000       902000    1337.9807    1289.5591    1128.5128     161.0463    161.03473     150.2331    22100.273   0.73367965 
  903000       903000    893.60546    1340.1227    1135.2643    204.85843    161.99815   -1385.3667    22100.273   0.73367965 
  904000       904000    1414.9548    1311.6016    1131.9765    179.62517    161.52898    320.66394    22100.273   0.73367965 
  905000       905000    1683.0046    1303.8308    1112.0281    191.80272    158.68243    1176.4264    22100.273   0.73367965 
  906000       906000    1209.2326    1351.2909    1139.4098    211.88106     162.5897   -440.75052    22100.273   0.73367965 
  907000       907000    1743.6337    1285.2377    1117.4713     167.7664    159.45915    1422.2218    22100.273   0.73367965 
  908000       908000    1257.7807    1288.6254    1111.5884    177.03698    158.61968   -95.698794    22100.273   0.73367965 
  909000       909000    1144.5941    1304.3434    1104.9264    199.41701    157.66904   -495.63894    22100.273   0.73367965 
  910000       910000    1260.5307    1328.2854    1141.3686    186.91677    162.86921   -210.21608    22100.273   0.73367965 
  911000       911000     1134.856    1341.1895    1132.3801    208.80945    161.58658   -640.17149    22100.273   0.73367965 
  912000       912000    1445.9208    1293.1703    1111.3002    181.87012    158.57856    473.92443    22100.273   0.73367965 
  913000       913000    1461.5864     1299.684    1126.4701    173.21397    160.74324     502.3191    22100.273   0.73367965 
  914000       914000    992.92296    1339.1936    1148.7851    190.40843    163.92752   -1074.3408    22100.273   0.73367965 
  915000       915000    1156.2161    1268.5238    1083.6499    184.87396    154.63296   -348.44666    22100.273   0.73367965 
  916000       916000    1471.6213    1317.0424     1101.421    215.62138    157.16883     479.5974    22100.273   0.73367965 
  917000       917000    1292.2164     1295.681    1116.2899    179.39106    159.29058   -10.749373    22100.273   0.73367965 
  918000       918000    1350.7389    1298.1438    1101.9413    196.20245    157.24308    163.18199    22100.273   0.73367965 
  919000       919000    1909.4855    1319.2092    1141.6501    177.55906    162.90938    1831.3943    22100.273   0.73367965 
  920000       920000    1518.6749    1354.3881    1152.6074    201.78069    164.47295    509.71688    22100.273   0.73367965 
  921000       921000    1750.7155    1313.8808    1108.1169    205.76393    158.12431    1355.3254    22100.273   0.73367965 
  922000       922000    1225.9621    1365.9531    1164.7678    201.18531     166.2082   -434.33685    22100.273   0.73367965 
  923000       923000    806.44871     1303.284    1123.1266    180.15737    160.26614   -1541.4835    22100.273   0.73367965 
  924000       924000    1445.8591    1327.9359    1118.2683    209.66766    159.57288    365.86898    22100.273   0.73367965 
  925000       925000    1342.3375    1319.3164    1130.2205    189.09596    161.27841    71.425392    22100.273   0.73367965 
  926000       926000    1332.2635    1311.0836    1106.4957    204.58794    157.89297    65.712801    22100.273   0.73367965 
  927000       927000    1382.2437     1250.902    1089.6643     161.2377    155.49119    407.50145    22100.273   0.73367965 
  928000       928000    1430.4577    1304.0058    1137.0584    166.94744    162.25416    392.33008    22100.273   0.73367965 
  929000       929000    1585.4004    1308.4975    1112.9298    195.56774    158.81109    859.12036    22100.273   0.73367965 
  930000       930000    1380.6442    1303.8716    1117.1431     186.7285    159.41232     238.1951    22100.273   0.73367965 
  931000       931000    1334.3363    1288.2869    1098.9937     189.2932    156.82246    142.87322    22100.273   0.73367965 
  932000       932000    1383.4683     1382.382    1165.9625    216.41945    166.37868     3.370342    22100.273   0.73367965 
  933000       933000    1440.0276    1286.4138     1114.523    171.89075    159.03844    476.60289    22100.273   0.73367965 
  934000       934000    1049.5736    1297.5305     1130.445     167.0855    161.31045   -769.31235    22100.273   0.73367965 
  935000       935000    1321.3613    1279.8094    1098.7965    181.01283    156.79433    128.91925    22100.273   0.73367965 
  936000       936000     1374.251    1294.5666    1127.5506    167.01601    160.89744    247.22906    22100.273   0.73367965 
  937000       937000    1358.6946    1301.4328    1123.9479    177.48488    160.38334    177.66074    22100.273   0.73367965 
  938000       938000    1531.7866    1281.6759    1115.3783    166.29769    159.16048    775.99467    22100.273   0.73367965 
  939000       939000    2070.9194    1353.7303    1140.1267    213.60362    162.69199    2225.1544    22100.273   0.73367965 
  940000       940000    1005.3351    1316.5918    1138.0126    178.57914    162.39032   -965.70649    22100.273   0.73367965 
  941000       941000    1560.2411    1294.9733     1133.949    161.02425    161.81047    823.02119    22100.273   0.73367965 
  942000       942000    1640.2239    1360.3699    1168.5638    191.80614    166.74987    868.27631    22100.273   0.73367965 
  943000       943000    932.55366    1294.6985    1108.5035    186.19502    158.17947   -1123.5922    22100.273   0.73367965 
  944000       944000    1562.3072      1384.08     1153.988    230.09198    164.66996    552.96835    22100.273   0.73367965 
  945000       945000    900.10841    1274.3485      1086.27    188.07848    155.00684   -1161.1191    22100.273   0.73367965 
  946000       946000     779.7529     1299.378    1127.1752    172.20287    160.84386   -1612.1915    22100.273   0.73367965 
  947000       947000    1403.2855    1341.2111    1120.4009    220.81024    159.87719    192.59233    22100.273   0.73367965 
  948000       948000    1630.0668    1261.3251    1106.4728    154.85235     157.8897    1144.0599    22100.273   0.73367965 
  949000       949000    1126.2158     1282.888    1101.5014    181.38654    157.18031   -486.09182    22100.273   0.73367965 
  950000       950000    864.58262    1289.6003    1111.7918     177.8085    158.64871    -1318.662    22100.273   0.73367965 
  951000       951000    1587.0836    1377.8199    1147.3097    230.51023    163.71698    649.26237    22100.273   0.73367965 
  952000       952000    1256.4721    1314.2044    1131.3471    182.85726    161.43918   -179.12051    22100.273   0.73367965 
  953000       953000    1378.4656    1277.0205    1129.0509    147.96962    161.11152    314.74419    22100.273   0.73367965 
  954000       954000    1058.4637    1317.1051    1132.6145    184.49067    161.62003   -802.46227    22100.273   0.73367965 
  955000       955000    769.29932     1258.441    1084.1608    174.28023    154.70586   -1517.6135    22100.273   0.73367965 
  956000       956000    1622.9642    1300.1491    1101.9688     198.1803      157.247    1001.5678    22100.273   0.73367965 
  957000       957000    1673.8175    1324.9783    1107.1644    217.81391     157.9884    1082.3102    22100.273   0.73367965 
  958000       958000    1699.0511    1357.2176    1127.2368    229.98076    160.85265    1060.5745    22100.273   0.73367965 
  959000       959000    1284.1498    1300.0043    1105.3225    194.68173    157.72557   -49.190159    22100.273   0.73367965 
  960000       960000    1150.1691    1314.8521    1125.0071      189.845    160.53448   -510.94618    22100.273   0.73367965 
  961000       961000    1615.8352    1304.6555    1134.2714    170.38416    161.85646    965.46754    22100.273   0.73367965 
  962000       962000     1277.262    1314.9174    1130.2478    184.66967    161.28231      -116.83    22100.273   0.73367965 
  963000       963000    915.99296     1295.879    1125.0105     170.8685    160.53496   -1178.6361    22100.273   0.73367965 
  964000       964000     759.8974    1328.8549    1136.2873    192.56761    162.14412   -1765.2503    22100.273   0.73367965 
  965000       965000    1711.0532    1316.8173    1109.7325    207.08481    158.35485    1223.1583    22100.273   0.73367965 
  966000       966000    1299.7804    1318.2801    1088.1887    230.09135    155.28063   -57.397104    22100.273   0.73367965 
  967000       967000    2384.3017     1370.192    1154.9913    215.20062    164.81312    3146.3818    22100.273   0.73367965 
  968000       968000    1163.3223    1300.4555    1138.4721    161.98348    162.45588   -425.47022    22100.273   0.73367965 
  969000       969000    1318.5249    1261.2615    1101.2293    160.03225    157.14147    177.66564    22100.273   0.73367965 
  970000       970000    1489.4071    1297.8335    1135.9867     161.8468    162.10123     594.3771    22100.273   0.73367965 
  971000       971000    1280.5635    1314.1407    1125.1888    188.95181    160.56042    -104.1767    22100.273   0.73367965 
  972000       972000    1274.5037    1252.3952    1083.1577    169.23749    154.56272    68.594139    22100.273   0.73367965 
  973000       973000    870.44934    1311.7925    1122.9941    188.79831    160.24724   -1369.3133    22100.273   0.73367965 
  974000       974000    1547.8883    1320.6506    1127.3972    193.25342    160.87554    705.02878    22100.273   0.73367965 
  975000       975000    1307.5896    1271.5779    1100.0297    171.54816     156.9703    111.73008    22100.273   0.73367965 
  976000       976000     1372.931    1300.3743     1130.903     169.4713    161.37581    225.11474    22100.273   0.73367965 
  977000       977000    1545.9434    1326.1971    1128.3331    197.86398     161.0091    681.78593    22100.273   0.73367965 
  978000       978000    1449.5077     1310.281     1136.098      174.183    162.11711    431.96567    22100.273   0.73367965 
  979000       979000    1365.7852    1330.6825    1124.2933    206.38919    160.43263    108.90977    22100.273   0.73367965 
  980000       980000    1708.6173     1305.542    1126.6405    178.90156    160.76756    1250.5832    22100.273   0.73367965 
  981000       981000    1093.4075    1357.2124    1140.7941    216.41826    162.78723   -818.48218    22100.273   0.73367965 
  982000       982000    1051.5158    1302.2012    1090.6207    211.58045    155.62767   -777.77765    22100.273   0.73367965 
  983000       983000    1689.3716    1319.2395    1092.9771    226.26242    155.96392    1148.3735    22100.273   0.73367965 
  984000       984000    1003.3114    1294.8953    1114.0384    180.85696    158.96928   -904.66973    22100.273   0.73367965 
  985000       985000    990.72307    1343.3056    1122.0654    221.24022    160.11471   -1093.9243    22100.273   0.73367965 
  986000       986000    1245.9887    1300.4838    1090.9094    209.57435    155.66886   -169.07669    22100.273   0.73367965 
  987000       987000    1141.1759    1292.3431    1113.6711    178.67204    158.91687   -469.01222    22100.273   0.73367965 
  988000       988000    1366.3353    1331.1405    1129.7955    201.34496    161.21777     109.1956    22100.273   0.73367965 
  989000       989000     1448.771    1304.1365    1130.0947    174.04181    161.26047     448.7436    22100.273   0.73367965 
  990000       990000    1583.3704    1289.0462    1100.6272    188.41892    157.05557    913.17192    22100.273   0.73367965 
  991000       991000    986.46418    1307.4114    1108.0131    199.39837    158.10949   -995.77249    22100.273   0.73367965 
  992000       992000    1063.2227    1295.9382    1104.5681    191.37005    157.61792   -722.02424    22100.273   0.73367965 
  993000       993000    1345.4268    1294.8427    1088.3911    206.45168    155.30951    156.94239    22100.273   0.73367965 
  994000       994000    1423.3618    1366.4264    1155.7569    210.66953    164.92237    176.64797    22100.273   0.73367965 
  995000       995000    1515.3337    1312.6737    1125.5855    187.08822    160.61702    628.77363    22100.273   0.73367965 
  996000       996000    1252.3312    1269.8762    1096.6291    173.24715    156.48504   -54.435242    22100.273   0.73367965 
  997000       997000    793.32736    1277.3159    1108.3005    169.01546     158.1505   -1501.6252    22100.273   0.73367965 
  998000       998000    796.20973    1292.4792    1087.4589    205.02032    155.17649   -1539.7281    22100.273   0.73367965 
  999000       999000    1050.8351    1340.1635    1148.3257    191.83776    163.86196    -897.6715    22100.273   0.73367965 
 1000000      1000000     1543.634    1295.8138     1126.446    169.36778    160.73981    768.88794    22100.273   0.73367965 
Loop time of 1861.57 on 24 procs for 1000000 steps with 2352 atoms

Performance: 46.412 ns/day, 0.517 hours/ns, 537.182 timesteps/s
93.4% CPU use with 24 MPI tasks x 1 OpenMP threads

MPI task timing breakdown:
Section |  min time  |  avg time  |  max time  |%varavg| %total
---------------------------------------------------------------
Pair    | 819.56     | 848.75     | 879.91     |  54.7 | 45.59
Bond    | 37.354     | 38.264     | 39.238     |   8.0 |  2.06
Kspace  | 205.26     | 236.9      | 282.62     | 140.3 | 12.73
Neigh   | 38.14      | 38.685     | 39.521     |   6.5 |  2.08
Comm    | 336.52     | 349.61     | 361.79     |  36.6 | 18.78
Output  | 0.042637   | 11.51      | 275.26     |1621.0 |  0.62
Modify  | 11.571     | 15.019     | 18.81      |  61.5 |  0.81
Other   |            | 322.8      |            |       | 17.34

Nlocal:    98 ave 110 max 90 min
Histogram: 1 6 2 4 2 3 1 1 2 2
Nghost:    5747.83 ave 5799 max 5695 min
Histogram: 2 1 3 3 6 0 2 0 3 4
Neighs:    59857.3 ave 67553 max 51971 min
Histogram: 1 1 2 4 6 3 0 4 1 2

Total # of neighbors = 1436576
Ave neighs/atom = 610.789
Ave special neighs/atom = 9.14286
Neighbor list builds = 22182
Dangerous builds = 0

#write_data butane_afterr_nvt1.data
Total wall time: 0:31:01
